<?xml version="1.0" encoding="UTF-8"?>

<!-- generated on 2024-06-10 18:39:46 by Eclipse SUMO libsumo Version 1.20.0
<configuration xmlns:xsi="http://www.w3.org/2001/XMLSchema-instance" xsi:noNamespaceSchemaLocation="http://sumo.dlr.de/xsd/libsumoConfiguration.xsd">

    <input>
        <net-file value="sumo_rl/nets/2way-single-intersection/single-intersection-2.net.xml"/>
        <route-files value="sumo_rl/nets/2way-single-intersection/single-intersection-vhvh.rou.xml"/>
    </input>

    <output>
        <tripinfo-output value="outputs/l0.0001-normal-trained-10e5\tripinfos_20240610183942_20240610183946.xml"/>
    </output>

    <processing>
        <time-to-teleport value="-1"/>
        <waiting-time-memory value="1000"/>
        <max-depart-delay value="-1"/>
    </processing>

    <random_number>
        <random value="true"/>
    </random_number>

</configuration>
-->

<tripinfos xmlns:xsi="http://www.w3.org/2001/XMLSchema-instance" xsi:noNamespaceSchemaLocation="http://sumo.dlr.de/xsd/tripinfo_file.xsd">
    <tripinfo id="flow03.0" depart="3.00" departLane="n_t_0" departPos="5.10" departSpeed="0.00" departDelay="0.51" arrival="28.00" arrivalLane="t_e_0" arrivalPos="136.25" arrivalSpeed="14.01" duration="25.00" routeLength="279.21" waitingTime="0.00" waitingCount="0" stopTime="0.00" timeLoss="4.71" rerouteNo="0" devices="tripinfo_flow03.0" vType="CarA" speedFactor="1.05" vaporized=""/>
    <tripinfo id="flow08.0" depart="7.00" departLane="w_t_0" departPos="5.10" departSpeed="0.00" departDelay="0.16" arrival="30.00" arrivalLane="t_s_0" arrivalPos="136.25" arrivalSpeed="14.78" duration="23.00" routeLength="293.40" waitingTime="0.00" waitingCount="0" stopTime="0.00" timeLoss="3.64" rerouteNo="0" devices="tripinfo_flow08.0" vType="CarA" speedFactor="1.13" vaporized=""/>
    <tripinfo id="flow12.0" depart="6.00" departLane="e_t_0" departPos="5.10" departSpeed="0.00" departDelay="0.95" arrival="31.00" arrivalLane="t_n_0" arrivalPos="136.25" arrivalSpeed="13.73" duration="25.00" routeLength="293.40" waitingTime="0.00" waitingCount="0" stopTime="0.00" timeLoss="4.15" rerouteNo="0" devices="tripinfo_flow12.0" vType="CarA" speedFactor="1.06" vaporized=""/>
    <tripinfo id="flow05.0" depart="5.00" departLane="s_t_0" departPos="5.10" departSpeed="0.00" departDelay="0.55" arrival="32.00" arrivalLane="t_w_0" arrivalPos="136.25" arrivalSpeed="12.87" duration="27.00" routeLength="279.21" waitingTime="0.00" waitingCount="0" stopTime="0.00" timeLoss="4.25" rerouteNo="0" devices="tripinfo_flow05.0" vType="CarA" speedFactor="0.93" vaporized=""/>
    <tripinfo id="flow05.1" depart="10.00" departLane="s_t_0" departPos="5.10" departSpeed="0.00" departDelay="1.47" arrival="34.00" arrivalLane="t_w_0" arrivalPos="136.25" arrivalSpeed="16.53" duration="24.00" routeLength="279.21" waitingTime="0.00" waitingCount="0" stopTime="0.00" timeLoss="6.33" rerouteNo="0" devices="tripinfo_flow05.1" vType="CarA" speedFactor="1.20" vaporized=""/>
    <tripinfo id="flow12.1" depart="8.00" departLane="e_t_0" departPos="5.10" departSpeed="0.00" departDelay="1.31" arrival="43.00" arrivalLane="t_n_0" arrivalPos="136.25" arrivalSpeed="9.00" duration="35.00" routeLength="293.40" waitingTime="0.00" waitingCount="0" stopTime="0.00" timeLoss="4.59" rerouteNo="0" devices="tripinfo_flow12.1" vType="CarA" speedFactor="0.72" vaporized=""/>
    <tripinfo id="flow11.0" depart="3.00" departLane="e_t_0" departPos="5.10" departSpeed="0.00" departDelay="0.79" arrival="44.00" arrivalLane="t_s_0" arrivalPos="136.25" arrivalSpeed="14.03" duration="41.00" routeLength="279.21" waitingTime="13.00" waitingCount="1" stopTime="0.00" timeLoss="20.88" rerouteNo="0" devices="tripinfo_flow11.0" vType="CarA" speedFactor="1.07" vaporized=""/>
    <tripinfo id="flow06.0" depart="7.00" departLane="s_t_0" departPos="5.10" departSpeed="0.00" departDelay="2.86" arrival="44.00" arrivalLane="t_e_0" arrivalPos="136.25" arrivalSpeed="16.04" duration="37.00" routeLength="293.40" waitingTime="7.00" waitingCount="1" stopTime="0.00" timeLoss="17.79" rerouteNo="0" devices="tripinfo_flow06.0" vType="CarA" speedFactor="1.16" vaporized=""/>
    <tripinfo id="flow04.0" depart="18.00" departLane="s_t_0" departPos="5.10" departSpeed="0.00" departDelay="0.98" arrival="45.00" arrivalLane="t_n_0" arrivalPos="136.25" arrivalSpeed="12.66" duration="27.00" routeLength="294.90" waitingTime="0.00" waitingCount="0" stopTime="0.00" timeLoss="5.21" rerouteNo="0" devices="tripinfo_flow04.0" vType="CarA" speedFactor="1.00" vaporized=""/>
    <tripinfo id="flow06.1" depart="21.00" departLane="s_t_0" departPos="5.10" departSpeed="0.00" departDelay="0.72" arrival="53.00" arrivalLane="t_e_0" arrivalPos="136.25" arrivalSpeed="10.53" duration="32.00" routeLength="293.40" waitingTime="0.00" waitingCount="0" stopTime="0.00" timeLoss="4.83" rerouteNo="0" devices="tripinfo_flow06.1" vType="CarA" speedFactor="0.80" vaporized=""/>
    <tripinfo id="flow12.2" depart="15.00" departLane="e_t_0" departPos="5.10" departSpeed="0.00" departDelay="0.84" arrival="55.00" arrivalLane="t_n_0" arrivalPos="136.25" arrivalSpeed="15.26" duration="40.00" routeLength="293.40" waitingTime="10.00" waitingCount="1" stopTime="0.00" timeLoss="20.88" rerouteNo="0" devices="tripinfo_flow12.2" vType="CarA" speedFactor="1.15" vaporized=""/>
    <tripinfo id="flow12.3" depart="28.00" departLane="e_t_0" departPos="5.10" departSpeed="0.00" departDelay="2.56" arrival="58.00" arrivalLane="t_n_0" arrivalPos="136.25" arrivalSpeed="14.70" duration="30.00" routeLength="293.40" waitingTime="0.00" waitingCount="0" stopTime="0.00" timeLoss="9.17" rerouteNo="0" devices="tripinfo_flow12.3" vType="CarA" speedFactor="1.07" vaporized=""/>
    <tripinfo id="flow12.4" depart="31.00" departLane="e_t_0" departPos="5.10" departSpeed="0.00" departDelay="0.10" arrival="60.00" arrivalLane="t_n_0" arrivalPos="136.25" arrivalSpeed="15.06" duration="29.00" routeLength="293.40" waitingTime="0.00" waitingCount="0" stopTime="0.00" timeLoss="9.00" rerouteNo="0" devices="tripinfo_flow12.4" vType="CarA" speedFactor="1.14" vaporized=""/>
    <tripinfo id="flow03.1" depart="37.00" departLane="n_t_0" departPos="5.10" departSpeed="0.00" departDelay="0.90" arrival="63.00" arrivalLane="t_e_0" arrivalPos="136.25" arrivalSpeed="13.05" duration="26.00" routeLength="279.21" waitingTime="0.00" waitingCount="0" stopTime="0.00" timeLoss="5.50" rerouteNo="0" devices="tripinfo_flow03.1" vType="CarA" speedFactor="1.01" vaporized=""/>
    <tripinfo id="flow12.5" depart="37.00" departLane="e_t_0" departPos="5.10" departSpeed="0.00" departDelay="0.39" arrival="63.00" arrivalLane="t_n_0" arrivalPos="136.25" arrivalSpeed="14.24" duration="26.00" routeLength="293.40" waitingTime="0.00" waitingCount="0" stopTime="0.00" timeLoss="4.27" rerouteNo="0" devices="tripinfo_flow12.5" vType="CarA" speedFactor="1.05" vaporized=""/>
    <tripinfo id="flow03.2" depart="41.00" departLane="n_t_0" departPos="5.10" departSpeed="0.00" departDelay="0.76" arrival="65.00" arrivalLane="t_e_0" arrivalPos="136.25" arrivalSpeed="15.26" duration="24.00" routeLength="279.21" waitingTime="0.00" waitingCount="0" stopTime="0.00" timeLoss="5.92" rerouteNo="0" devices="tripinfo_flow03.2" vType="CarA" speedFactor="1.17" vaporized=""/>
    <tripinfo id="flow12.6" depart="39.00" departLane="e_t_0" departPos="5.10" departSpeed="0.00" departDelay="0.38" arrival="66.00" arrivalLane="t_n_0" arrivalPos="136.25" arrivalSpeed="13.25" duration="27.00" routeLength="293.40" waitingTime="0.00" waitingCount="0" stopTime="0.00" timeLoss="4.39" rerouteNo="0" devices="tripinfo_flow12.6" vType="CarA" speedFactor="0.98" vaporized=""/>
    <tripinfo id="flow12.7" depart="42.00" departLane="e_t_0" departPos="5.10" departSpeed="0.00" departDelay="0.01" arrival="68.00" arrivalLane="t_n_0" arrivalPos="136.25" arrivalSpeed="13.92" duration="26.00" routeLength="293.40" waitingTime="0.00" waitingCount="0" stopTime="0.00" timeLoss="5.20" rerouteNo="0" devices="tripinfo_flow12.7" vType="CarA" speedFactor="1.08" vaporized=""/>
    <tripinfo id="flow10.0" depart="11.00" departLane="e_t_0" departPos="5.10" departSpeed="0.00" departDelay="0.71" arrival="72.00" arrivalLane="t_w_0" arrivalPos="136.25" arrivalSpeed="15.66" duration="61.00" routeLength="294.90" waitingTime="34.00" waitingCount="1" stopTime="0.00" timeLoss="42.58" rerouteNo="0" devices="tripinfo_flow10.0" vType="CarA" speedFactor="1.16" vaporized=""/>
    <tripinfo id="flow10.1" depart="20.00" departLane="e_t_0" departPos="5.10" departSpeed="0.00" departDelay="0.36" arrival="77.00" arrivalLane="t_w_0" arrivalPos="136.25" arrivalSpeed="13.23" duration="57.00" routeLength="294.90" waitingTime="24.00" waitingCount="1" stopTime="0.00" timeLoss="33.96" rerouteNo="0" devices="tripinfo_flow10.1" vType="CarA" speedFactor="0.96" vaporized=""/>
    <tripinfo id="flow10.2" depart="25.00" departLane="e_t_0" departPos="5.10" departSpeed="0.00" departDelay="0.92" arrival="78.00" arrivalLane="t_w_0" arrivalPos="136.25" arrivalSpeed="15.00" duration="53.00" routeLength="294.90" waitingTime="20.00" waitingCount="1" stopTime="0.00" timeLoss="34.68" rerouteNo="0" devices="tripinfo_flow10.2" vType="CarA" speedFactor="1.17" vaporized=""/>
    <tripinfo id="flow10.3" depart="34.00" departLane="e_t_0" departPos="5.10" departSpeed="0.00" departDelay="0.62" arrival="80.00" arrivalLane="t_w_0" arrivalPos="136.25" arrivalSpeed="13.08" duration="46.00" routeLength="294.90" waitingTime="13.00" waitingCount="1" stopTime="0.00" timeLoss="24.92" rerouteNo="0" devices="tripinfo_flow10.3" vType="CarA" speedFactor="1.03" vaporized=""/>
    <tripinfo id="flow10.4" depart="44.00" departLane="e_t_0" departPos="5.10" departSpeed="0.00" departDelay="0.66" arrival="82.00" arrivalLane="t_w_0" arrivalPos="136.25" arrivalSpeed="14.06" duration="38.00" routeLength="294.90" waitingTime="5.00" waitingCount="1" stopTime="0.00" timeLoss="18.04" rerouteNo="0" devices="tripinfo_flow10.4" vType="CarA" speedFactor="1.10" vaporized=""/>
    <tripinfo id="flow11.1" depart="57.00" departLane="e_t_0" departPos="5.10" departSpeed="0.00" departDelay="0.14" arrival="82.00" arrivalLane="t_s_0" arrivalPos="136.25" arrivalSpeed="14.80" duration="25.00" routeLength="279.21" waitingTime="0.00" waitingCount="0" stopTime="0.00" timeLoss="6.25" rerouteNo="0" devices="tripinfo_flow11.1" vType="CarA" speedFactor="1.12" vaporized=""/>
    <tripinfo id="flow10.5" depart="53.00" departLane="e_t_0" departPos="5.10" departSpeed="0.00" departDelay="0.02" arrival="83.00" arrivalLane="t_w_0" arrivalPos="136.25" arrivalSpeed="16.96" duration="30.00" routeLength="294.90" waitingTime="0.00" waitingCount="0" stopTime="0.00" timeLoss="13.44" rerouteNo="0" devices="tripinfo_flow10.5" vType="CarA" speedFactor="1.30" vaporized=""/>
    <tripinfo id="flow12.8" depart="60.00" departLane="e_t_0" departPos="5.10" departSpeed="0.00" departDelay="1.21" arrival="87.00" arrivalLane="t_n_0" arrivalPos="136.25" arrivalSpeed="12.55" duration="27.00" routeLength="293.40" waitingTime="0.00" waitingCount="0" stopTime="0.00" timeLoss="3.85" rerouteNo="0" devices="tripinfo_flow12.8" vType="CarA" speedFactor="0.97" vaporized=""/>
    <tripinfo id="flow10.6" depart="67.00" departLane="e_t_0" departPos="5.10" departSpeed="0.00" departDelay="0.27" arrival="91.00" arrivalLane="t_w_0" arrivalPos="136.25" arrivalSpeed="14.67" duration="24.00" routeLength="294.90" waitingTime="0.00" waitingCount="0" stopTime="0.00" timeLoss="3.87" rerouteNo="0" devices="tripinfo_flow10.6" vType="CarA" speedFactor="1.10" vaporized=""/>
    <tripinfo id="flow11.2" depart="71.00" departLane="e_t_0" departPos="5.10" departSpeed="0.00" departDelay="3.24" arrival="95.00" arrivalLane="t_s_0" arrivalPos="136.25" arrivalSpeed="16.14" duration="24.00" routeLength="279.21" waitingTime="0.00" waitingCount="0" stopTime="0.00" timeLoss="6.69" rerouteNo="0" devices="tripinfo_flow11.2" vType="CarA" speedFactor="1.20" vaporized=""/>
    <tripinfo id="flow12.9" depart="69.00" departLane="e_t_0" departPos="5.10" departSpeed="0.00" departDelay="2.68" arrival="96.00" arrivalLane="t_n_0" arrivalPos="136.25" arrivalSpeed="13.06" duration="27.00" routeLength="293.40" waitingTime="0.00" waitingCount="0" stopTime="0.00" timeLoss="4.62" rerouteNo="0" devices="tripinfo_flow12.9" vType="CarA" speedFactor="1.00" vaporized=""/>
    <tripinfo id="flow10.7" depart="76.00" departLane="e_t_0" departPos="5.10" departSpeed="0.00" departDelay="2.83" arrival="100.00" arrivalLane="t_w_0" arrivalPos="136.25" arrivalSpeed="15.46" duration="24.00" routeLength="294.90" waitingTime="0.00" waitingCount="0" stopTime="0.00" timeLoss="4.34" rerouteNo="0" devices="tripinfo_flow10.7" vType="CarA" speedFactor="1.14" vaporized=""/>
    <tripinfo id="flow12.10" depart="74.00" departLane="e_t_0" departPos="5.10" departSpeed="0.00" departDelay="2.95" arrival="102.00" arrivalLane="t_n_0" arrivalPos="136.25" arrivalSpeed="12.40" duration="28.00" routeLength="293.40" waitingTime="0.00" waitingCount="0" stopTime="0.00" timeLoss="4.93" rerouteNo="0" devices="tripinfo_flow12.10" vType="CarA" speedFactor="0.97" vaporized=""/>
    <tripinfo id="flow10.8" depart="78.00" departLane="e_t_0" departPos="5.10" departSpeed="0.00" departDelay="2.70" arrival="104.00" arrivalLane="t_w_0" arrivalPos="136.25" arrivalSpeed="12.66" duration="26.00" routeLength="294.90" waitingTime="0.00" waitingCount="0" stopTime="0.00" timeLoss="3.59" rerouteNo="0" devices="tripinfo_flow10.8" vType="CarA" speedFactor="0.96" vaporized=""/>
    <tripinfo id="flow03.3" depart="79.00" departLane="n_t_0" departPos="5.10" departSpeed="0.00" departDelay="0.08" arrival="107.00" arrivalLane="t_e_0" arrivalPos="136.25" arrivalSpeed="12.77" duration="28.00" routeLength="279.21" waitingTime="0.00" waitingCount="0" stopTime="0.00" timeLoss="5.15" rerouteNo="0" devices="tripinfo_flow03.3" vType="CarA" speedFactor="0.95" vaporized=""/>
    <tripinfo id="flow07.0" depart="11.00" departLane="w_t_0" departPos="5.10" departSpeed="0.00" departDelay="1.85" arrival="112.00" arrivalLane="t_e_0" arrivalPos="136.25" arrivalSpeed="15.55" duration="101.00" routeLength="294.90" waitingTime="72.00" waitingCount="1" stopTime="0.00" timeLoss="82.29" rerouteNo="0" devices="tripinfo_flow07.0" vType="CarA" speedFactor="1.15" vaporized=""/>
    <tripinfo id="flow09.0" depart="8.00" departLane="w_t_0" departPos="5.10" departSpeed="0.00" departDelay="1.76" arrival="113.00" arrivalLane="t_n_0" arrivalPos="136.25" arrivalSpeed="13.03" duration="105.00" routeLength="279.21" waitingTime="75.00" waitingCount="1" stopTime="0.00" timeLoss="82.48" rerouteNo="0" devices="tripinfo_flow09.0" vType="CarA" speedFactor="0.95" vaporized=""/>
    <tripinfo id="flow09.1" depart="55.00" departLane="w_t_0" departPos="5.10" departSpeed="0.00" departDelay="0.58" arrival="115.00" arrivalLane="t_n_0" arrivalPos="136.25" arrivalSpeed="13.45" duration="60.00" routeLength="279.21" waitingTime="30.00" waitingCount="1" stopTime="0.00" timeLoss="39.44" rerouteNo="0" devices="tripinfo_flow09.1" vType="CarA" speedFactor="1.05" vaporized=""/>
    <tripinfo id="flow07.1" depart="40.00" departLane="w_t_0" departPos="5.10" departSpeed="0.00" departDelay="0.73" arrival="118.00" arrivalLane="t_e_0" arrivalPos="136.25" arrivalSpeed="10.55" duration="78.00" routeLength="294.90" waitingTime="43.00" waitingCount="1" stopTime="0.00" timeLoss="51.63" rerouteNo="0" devices="tripinfo_flow07.1" vType="CarA" speedFactor="0.81" vaporized=""/>
    <tripinfo id="flow07.2" depart="64.00" departLane="w_t_0" departPos="5.10" departSpeed="0.00" departDelay="0.50" arrival="120.00" arrivalLane="t_e_0" arrivalPos="136.25" arrivalSpeed="13.25" duration="56.00" routeLength="294.90" waitingTime="23.00" waitingCount="1" stopTime="0.00" timeLoss="33.98" rerouteNo="0" devices="tripinfo_flow07.2" vType="CarA" speedFactor="1.00" vaporized=""/>
    <tripinfo id="flow07.3" depart="67.00" departLane="w_t_0" departPos="5.10" departSpeed="0.00" departDelay="3.02" arrival="121.00" arrivalLane="t_e_0" arrivalPos="136.25" arrivalSpeed="13.90" duration="54.00" routeLength="294.90" waitingTime="20.00" waitingCount="1" stopTime="0.00" timeLoss="34.38" rerouteNo="0" devices="tripinfo_flow07.3" vType="CarA" speedFactor="1.08" vaporized=""/>
    <tripinfo id="flow10.9" depart="96.00" departLane="e_t_0" departPos="5.10" departSpeed="0.00" departDelay="0.23" arrival="122.00" arrivalLane="t_w_0" arrivalPos="136.25" arrivalSpeed="13.35" duration="26.00" routeLength="294.90" waitingTime="0.00" waitingCount="0" stopTime="0.00" timeLoss="4.21" rerouteNo="0" devices="tripinfo_flow10.9" vType="CarA" speedFactor="1.00" vaporized=""/>
    <tripinfo id="flow07.4" depart="70.00" departLane="w_t_0" departPos="5.10" departSpeed="0.00" departDelay="4.14" arrival="123.00" arrivalLane="t_e_0" arrivalPos="136.25" arrivalSpeed="13.72" duration="53.00" routeLength="294.90" waitingTime="20.00" waitingCount="1" stopTime="0.00" timeLoss="32.61" rerouteNo="0" devices="tripinfo_flow07.4" vType="CarA" speedFactor="1.06" vaporized=""/>
    <tripinfo id="flow07.5" depart="81.00" departLane="w_t_0" departPos="5.10" departSpeed="0.00" departDelay="0.49" arrival="125.00" arrivalLane="t_e_0" arrivalPos="136.25" arrivalSpeed="13.08" duration="44.00" routeLength="294.90" waitingTime="9.00" waitingCount="1" stopTime="0.00" timeLoss="21.38" rerouteNo="0" devices="tripinfo_flow07.5" vType="CarA" speedFactor="0.96" vaporized=""/>
    <tripinfo id="flow11.3" depart="103.00" departLane="e_t_0" departPos="5.10" departSpeed="0.00" departDelay="0.90" arrival="128.00" arrivalLane="t_s_0" arrivalPos="136.25" arrivalSpeed="14.08" duration="25.00" routeLength="279.21" waitingTime="0.00" waitingCount="0" stopTime="0.00" timeLoss="5.72" rerouteNo="0" devices="tripinfo_flow11.3" vType="CarA" speedFactor="1.07" vaporized=""/>
    <tripinfo id="flow06.2" depart="29.00" departLane="s_t_0" departPos="5.10" departSpeed="0.00" departDelay="0.72" arrival="130.00" arrivalLane="t_e_0" arrivalPos="136.25" arrivalSpeed="14.06" duration="101.00" routeLength="293.40" waitingTime="72.00" waitingCount="1" stopTime="0.00" timeLoss="80.99" rerouteNo="0" devices="tripinfo_flow06.2" vType="CarA" speedFactor="1.09" vaporized=""/>
    <tripinfo id="flow05.2" depart="49.00" departLane="s_t_0" departPos="5.10" departSpeed="0.00" departDelay="0.62" arrival="131.00" arrivalLane="t_w_0" arrivalPos="136.25" arrivalSpeed="12.67" duration="82.00" routeLength="279.21" waitingTime="50.00" waitingCount="1" stopTime="0.00" timeLoss="58.67" rerouteNo="0" devices="tripinfo_flow05.2" vType="CarA" speedFactor="0.92" vaporized=""/>
    <tripinfo id="flow04.1" depart="65.00" departLane="s_t_0" departPos="5.10" departSpeed="0.00" departDelay="0.98" arrival="133.00" arrivalLane="t_n_0" arrivalPos="136.25" arrivalSpeed="11.92" duration="68.00" routeLength="294.90" waitingTime="34.00" waitingCount="1" stopTime="0.00" timeLoss="43.48" rerouteNo="0" devices="tripinfo_flow04.1" vType="CarA" speedFactor="0.89" vaporized=""/>
    <tripinfo id="flow06.3" depart="37.00" departLane="s_t_0" departPos="5.10" departSpeed="0.00" departDelay="0.70" arrival="135.00" arrivalLane="t_e_0" arrivalPos="136.25" arrivalSpeed="10.66" duration="98.00" routeLength="293.40" waitingTime="63.00" waitingCount="1" stopTime="0.00" timeLoss="72.12" rerouteNo="0" devices="tripinfo_flow06.3" vType="CarA" speedFactor="0.85" vaporized=""/>
    <tripinfo id="flow04.2" depart="68.00" departLane="s_t_0" departPos="5.10" departSpeed="0.00" departDelay="1.03" arrival="135.00" arrivalLane="t_n_0" arrivalPos="136.25" arrivalSpeed="12.34" duration="67.00" routeLength="294.90" waitingTime="31.00" waitingCount="1" stopTime="0.00" timeLoss="42.59" rerouteNo="0" devices="tripinfo_flow04.2" vType="CarA" speedFactor="0.90" vaporized=""/>
    <tripinfo id="flow04.3" depart="72.00" departLane="s_t_0" departPos="5.10" departSpeed="0.00" departDelay="2.61" arrival="136.00" arrivalLane="t_n_0" arrivalPos="136.25" arrivalSpeed="13.54" duration="64.00" routeLength="294.90" waitingTime="30.00" waitingCount="1" stopTime="0.00" timeLoss="42.80" rerouteNo="0" devices="tripinfo_flow04.3" vType="CarA" speedFactor="1.01" vaporized=""/>
    <tripinfo id="flow06.4" depart="47.00" departLane="s_t_0" departPos="5.10" departSpeed="0.00" departDelay="0.02" arrival="137.00" arrivalLane="t_e_0" arrivalPos="136.25" arrivalSpeed="12.07" duration="90.00" routeLength="293.40" waitingTime="56.00" waitingCount="1" stopTime="0.00" timeLoss="65.62" rerouteNo="0" devices="tripinfo_flow06.4" vType="CarA" speedFactor="0.92" vaporized=""/>
    <tripinfo id="flow04.4" depart="102.00" departLane="s_t_0" departPos="5.10" departSpeed="0.00" departDelay="0.69" arrival="138.00" arrivalLane="t_n_0" arrivalPos="136.25" arrivalSpeed="13.18" duration="36.00" routeLength="294.90" waitingTime="1.00" waitingCount="1" stopTime="0.00" timeLoss="14.13" rerouteNo="0" devices="tripinfo_flow04.4" vType="CarA" speedFactor="0.98" vaporized=""/>
    <tripinfo id="flow03.4" depart="93.00" departLane="n_t_0" departPos="5.10" departSpeed="0.00" departDelay="1.20" arrival="140.00" arrivalLane="t_e_0" arrivalPos="136.25" arrivalSpeed="15.11" duration="47.00" routeLength="279.21" waitingTime="18.00" waitingCount="1" stopTime="0.00" timeLoss="27.96" rerouteNo="0" devices="tripinfo_flow03.4" vType="CarA" speedFactor="1.09" vaporized=""/>
    <tripinfo id="flow01.0" depart="44.00" departLane="n_t_0" departPos="5.10" departSpeed="0.00" departDelay="0.23" arrival="141.00" arrivalLane="t_s_0" arrivalPos="136.25" arrivalSpeed="12.84" duration="97.00" routeLength="294.90" waitingTime="67.00" waitingCount="1" stopTime="0.00" timeLoss="75.99" rerouteNo="0" devices="tripinfo_flow01.0" vType="CarA" speedFactor="1.01" vaporized=""/>
    <tripinfo id="flow04.5" depart="112.00" departLane="s_t_0" departPos="5.10" departSpeed="0.00" departDelay="0.59" arrival="141.00" arrivalLane="t_n_0" arrivalPos="136.25" arrivalSpeed="12.45" duration="29.00" routeLength="294.90" waitingTime="0.00" waitingCount="0" stopTime="0.00" timeLoss="4.65" rerouteNo="0" devices="tripinfo_flow04.5" vType="CarA" speedFactor="0.90" vaporized=""/>
    <tripinfo id="flow01.1" depart="64.00" departLane="n_t_0" departPos="5.10" departSpeed="0.00" departDelay="0.15" arrival="143.00" arrivalLane="t_s_0" arrivalPos="136.25" arrivalSpeed="16.17" duration="79.00" routeLength="294.90" waitingTime="50.00" waitingCount="1" stopTime="0.00" timeLoss="60.49" rerouteNo="0" devices="tripinfo_flow01.1" vType="CarA" speedFactor="1.18" vaporized=""/>
    <tripinfo id="flow03.5" depart="96.00" departLane="n_t_0" departPos="5.10" departSpeed="0.00" departDelay="4.11" arrival="143.00" arrivalLane="t_e_0" arrivalPos="136.25" arrivalSpeed="13.41" duration="47.00" routeLength="279.21" waitingTime="16.00" waitingCount="1" stopTime="0.00" timeLoss="26.25" rerouteNo="0" devices="tripinfo_flow03.5" vType="CarA" speedFactor="1.00" vaporized=""/>
    <tripinfo id="flow05.3" depart="115.00" departLane="s_t_0" departPos="5.10" departSpeed="0.00" departDelay="3.68" arrival="143.00" arrivalLane="t_w_0" arrivalPos="136.25" arrivalSpeed="13.07" duration="28.00" routeLength="279.21" waitingTime="0.00" waitingCount="0" stopTime="0.00" timeLoss="5.60" rerouteNo="0" devices="tripinfo_flow05.3" vType="CarA" speedFactor="0.97" vaporized=""/>
    <tripinfo id="flow05.4" depart="118.00" departLane="s_t_0" departPos="5.10" departSpeed="0.00" departDelay="4.11" arrival="145.00" arrivalLane="t_w_0" arrivalPos="136.25" arrivalSpeed="14.08" duration="27.00" routeLength="279.21" waitingTime="0.00" waitingCount="0" stopTime="0.00" timeLoss="5.98" rerouteNo="0" devices="tripinfo_flow05.4" vType="CarA" speedFactor="1.03" vaporized=""/>
    <tripinfo id="flow01.2" depart="68.00" departLane="n_t_0" departPos="5.10" departSpeed="0.00" departDelay="0.91" arrival="146.00" arrivalLane="t_s_0" arrivalPos="136.25" arrivalSpeed="13.68" duration="78.00" routeLength="294.90" waitingTime="45.00" waitingCount="1" stopTime="0.00" timeLoss="55.86" rerouteNo="0" devices="tripinfo_flow01.2" vType="CarA" speedFactor="1.00" vaporized=""/>
    <tripinfo id="flow03.6" depart="100.00" departLane="n_t_0" departPos="5.10" departSpeed="0.00" departDelay="1.07" arrival="146.00" arrivalLane="t_e_0" arrivalPos="136.25" arrivalSpeed="13.52" duration="46.00" routeLength="279.21" waitingTime="15.00" waitingCount="1" stopTime="0.00" timeLoss="24.66" rerouteNo="0" devices="tripinfo_flow03.6" vType="CarA" speedFactor="0.98" vaporized=""/>
    <tripinfo id="flow01.3" depart="71.00" departLane="n_t_0" departPos="5.10" departSpeed="0.00" departDelay="2.65" arrival="147.00" arrivalLane="t_s_0" arrivalPos="136.25" arrivalSpeed="14.76" duration="76.00" routeLength="294.90" waitingTime="44.00" waitingCount="1" stopTime="0.00" timeLoss="57.19" rerouteNo="0" devices="tripinfo_flow01.3" vType="CarA" speedFactor="1.15" vaporized=""/>
    <tripinfo id="flow03.7" depart="121.00" departLane="n_t_0" departPos="5.10" departSpeed="0.00" departDelay="0.69" arrival="148.00" arrivalLane="t_e_0" arrivalPos="136.25" arrivalSpeed="14.88" duration="27.00" routeLength="279.21" waitingTime="0.00" waitingCount="0" stopTime="0.00" timeLoss="8.60" rerouteNo="0" devices="tripinfo_flow03.7" vType="CarA" speedFactor="1.14" vaporized=""/>
    <tripinfo id="flow01.4" depart="75.00" departLane="n_t_0" departPos="5.10" departSpeed="0.00" departDelay="0.28" arrival="149.00" arrivalLane="t_s_0" arrivalPos="136.25" arrivalSpeed="13.36" duration="74.00" routeLength="294.90" waitingTime="42.00" waitingCount="1" stopTime="0.00" timeLoss="52.90" rerouteNo="0" devices="tripinfo_flow01.4" vType="CarA" speedFactor="1.01" vaporized=""/>
    <tripinfo id="flow01.5" depart="85.00" departLane="n_t_0" departPos="5.10" departSpeed="0.00" departDelay="0.87" arrival="151.00" arrivalLane="t_s_0" arrivalPos="136.25" arrivalSpeed="12.31" duration="66.00" routeLength="294.90" waitingTime="32.00" waitingCount="1" stopTime="0.00" timeLoss="44.08" rerouteNo="0" devices="tripinfo_flow01.5" vType="CarA" speedFactor="0.97" vaporized=""/>
    <tripinfo id="flow01.6" depart="91.00" departLane="n_t_0" departPos="5.10" departSpeed="0.00" departDelay="0.61" arrival="153.00" arrivalLane="t_s_0" arrivalPos="136.25" arrivalSpeed="12.63" duration="62.00" routeLength="294.90" waitingTime="30.00" waitingCount="1" stopTime="0.00" timeLoss="39.80" rerouteNo="0" devices="tripinfo_flow01.6" vType="CarA" speedFactor="0.96" vaporized=""/>
    <tripinfo id="flow02.0" depart="48.00" departLane="n_t_0" departPos="5.10" departSpeed="0.00" departDelay="0.92" arrival="154.00" arrivalLane="t_w_0" arrivalPos="136.25" arrivalSpeed="10.84" duration="106.00" routeLength="293.40" waitingTime="72.00" waitingCount="1" stopTime="0.00" timeLoss="79.56" rerouteNo="0" devices="tripinfo_flow02.0" vType="CarA" speedFactor="0.84" vaporized=""/>
    <tripinfo id="flow02.1" depart="74.00" departLane="n_t_0" departPos="5.10" departSpeed="0.00" departDelay="3.30" arrival="155.00" arrivalLane="t_w_0" arrivalPos="136.25" arrivalSpeed="12.00" duration="81.00" routeLength="293.40" waitingTime="47.00" waitingCount="1" stopTime="0.00" timeLoss="61.18" rerouteNo="0" devices="tripinfo_flow02.1" vType="CarA" speedFactor="1.10" vaporized=""/>
    <tripinfo id="flow08.1" depart="72.00" departLane="w_t_0" departPos="5.10" departSpeed="0.00" departDelay="0.65" arrival="160.00" arrivalLane="t_s_0" arrivalPos="136.25" arrivalSpeed="15.92" duration="88.00" routeLength="293.40" waitingTime="60.00" waitingCount="1" stopTime="0.00" timeLoss="69.23" rerouteNo="0" devices="tripinfo_flow08.1" vType="CarA" speedFactor="1.19" vaporized=""/>
    <tripinfo id="flow07.6" depart="85.00" departLane="w_t_0" departPos="5.10" departSpeed="0.00" departDelay="0.71" arrival="162.00" arrivalLane="t_e_0" arrivalPos="136.25" arrivalSpeed="12.55" duration="77.00" routeLength="294.90" waitingTime="38.00" waitingCount="2" stopTime="0.00" timeLoss="54.46" rerouteNo="0" devices="tripinfo_flow07.6" vType="CarA" speedFactor="0.96" vaporized=""/>
    <tripinfo id="flow07.7" depart="87.00" departLane="w_t_0" departPos="5.10" departSpeed="0.00" departDelay="2.49" arrival="164.00" arrivalLane="t_e_0" arrivalPos="136.25" arrivalSpeed="13.05" duration="77.00" routeLength="294.90" waitingTime="36.00" waitingCount="2" stopTime="0.00" timeLoss="55.09" rerouteNo="0" devices="tripinfo_flow07.7" vType="CarA" speedFactor="1.00" vaporized=""/>
    <tripinfo id="flow08.2" depart="93.00" departLane="w_t_0" departPos="5.10" departSpeed="0.00" departDelay="6.88" arrival="164.00" arrivalLane="t_s_0" arrivalPos="136.25" arrivalSpeed="12.44" duration="71.00" routeLength="293.40" waitingTime="38.00" waitingCount="1" stopTime="0.00" timeLoss="48.16" rerouteNo="0" devices="tripinfo_flow08.2" vType="CarA" speedFactor="0.97" vaporized=""/>
    <tripinfo id="flow08.3" depart="97.00" departLane="w_t_0" departPos="5.10" departSpeed="0.00" departDelay="0.93" arrival="166.00" arrivalLane="t_s_0" arrivalPos="136.25" arrivalSpeed="13.35" duration="69.00" routeLength="293.40" waitingTime="33.00" waitingCount="1" stopTime="0.00" timeLoss="46.40" rerouteNo="0" devices="tripinfo_flow08.3" vType="CarA" speedFactor="0.99" vaporized=""/>
    <tripinfo id="flow05.5" depart="139.00" departLane="s_t_0" departPos="5.10" departSpeed="0.00" departDelay="0.64" arrival="166.00" arrivalLane="t_w_0" arrivalPos="136.25" arrivalSpeed="13.59" duration="27.00" routeLength="279.21" waitingTime="0.00" waitingCount="0" stopTime="0.00" timeLoss="5.52" rerouteNo="0" devices="tripinfo_flow05.5" vType="CarA" speedFactor="0.98" vaporized=""/>
    <tripinfo id="flow03.8" depart="134.00" departLane="n_t_0" departPos="5.10" departSpeed="0.00" departDelay="0.22" arrival="170.00" arrivalLane="t_e_0" arrivalPos="136.25" arrivalSpeed="14.70" duration="36.00" routeLength="279.21" waitingTime="8.00" waitingCount="1" stopTime="0.00" timeLoss="16.30" rerouteNo="0" devices="tripinfo_flow03.8" vType="CarA" speedFactor="1.09" vaporized=""/>