<?xml version="1.0" encoding="UTF-8"?>

<!-- generated on 2024-06-10 18:39:42 by Eclipse SUMO libsumo Version 1.20.0
<configuration xmlns:xsi="http://www.w3.org/2001/XMLSchema-instance" xsi:noNamespaceSchemaLocation="http://sumo.dlr.de/xsd/libsumoConfiguration.xsd">

    <input>
        <net-file value="sumo_rl/nets/2way-single-intersection/single-intersection-2.net.xml"/>
        <route-files value="sumo_rl/nets/2way-single-intersection/single-intersection-vhvh.rou.xml"/>
    </input>

    <output>
        <tripinfo-output value="outputs/l0.0001-normal-trained-10e5\tripinfos_20240610183942.xml"/>
    </output>

    <processing>
        <time-to-teleport value="-1"/>
        <waiting-time-memory value="1000"/>
        <max-depart-delay value="-1"/>
    </processing>

    <random_number>
        <random value="true"/>
    </random_number>

</configuration>
-->

<tripinfos xmlns:xsi="http://www.w3.org/2001/XMLSchema-instance" xsi:noNamespaceSchemaLocation="http://sumo.dlr.de/xsd/tripinfo_file.xsd">
    <tripinfo id="flow05.0" depart="3.00" departLane="s_t_0" departPos="5.10" departSpeed="0.00" departDelay="0.92" arrival="27.00" arrivalLane="t_w_0" arrivalPos="136.25" arrivalSpeed="14.26" duration="24.00" routeLength="279.21" waitingTime="0.00" waitingCount="0" stopTime="0.00" timeLoss="4.98" rerouteNo="0" devices="tripinfo_flow05.0" vType="CarA" speedFactor="1.10" vaporized=""/>
    <tripinfo id="flow03.0" depart="2.00" departLane="n_t_0" departPos="5.10" departSpeed="0.00" departDelay="0.66" arrival="28.00" arrivalLane="t_e_0" arrivalPos="136.25" arrivalSpeed="13.28" duration="26.00" routeLength="279.21" waitingTime="0.00" waitingCount="0" stopTime="0.00" timeLoss="4.61" rerouteNo="0" devices="tripinfo_flow03.0" vType="CarA" speedFactor="0.97" vaporized=""/>
    <tripinfo id="flow03.1" depart="6.00" departLane="n_t_0" departPos="5.10" departSpeed="0.00" departDelay="0.31" arrival="32.00" arrivalLane="t_e_0" arrivalPos="136.25" arrivalSpeed="14.70" duration="26.00" routeLength="279.21" waitingTime="0.00" waitingCount="0" stopTime="0.00" timeLoss="5.77" rerouteNo="0" devices="tripinfo_flow03.1" vType="CarA" speedFactor="1.07" vaporized=""/>
    <tripinfo id="flow05.1" depart="6.00" departLane="s_t_0" departPos="5.10" departSpeed="0.00" departDelay="0.02" arrival="34.00" arrivalLane="t_w_0" arrivalPos="136.25" arrivalSpeed="11.76" duration="28.00" routeLength="279.21" waitingTime="0.00" waitingCount="0" stopTime="0.00" timeLoss="5.36" rerouteNo="0" devices="tripinfo_flow05.1" vType="CarA" speedFactor="0.92" vaporized=""/>
    <tripinfo id="flow08.0" depart="4.00" departLane="w_t_0" departPos="5.10" departSpeed="0.00" departDelay="0.57" arrival="35.00" arrivalLane="t_s_0" arrivalPos="136.25" arrivalSpeed="10.55" duration="31.00" routeLength="293.40" waitingTime="0.00" waitingCount="0" stopTime="0.00" timeLoss="3.36" rerouteNo="0" devices="tripinfo_flow08.0" vType="CarA" speedFactor="0.79" vaporized=""/>
    <tripinfo id="flow08.1" depart="6.00" departLane="w_t_0" departPos="5.10" departSpeed="0.00" departDelay="1.84" arrival="37.00" arrivalLane="t_s_0" arrivalPos="136.25" arrivalSpeed="11.72" duration="31.00" routeLength="293.40" waitingTime="0.00" waitingCount="0" stopTime="0.00" timeLoss="5.48" rerouteNo="0" devices="tripinfo_flow08.1" vType="CarA" speedFactor="0.87" vaporized=""/>
    <tripinfo id="flow12.0" depart="12.00" departLane="e_t_0" departPos="5.10" departSpeed="0.00" departDelay="1.38" arrival="38.00" arrivalLane="t_n_0" arrivalPos="136.25" arrivalSpeed="13.91" duration="26.00" routeLength="293.40" waitingTime="0.00" waitingCount="0" stopTime="0.00" timeLoss="4.21" rerouteNo="0" devices="tripinfo_flow12.0" vType="CarA" speedFactor="1.04" vaporized=""/>
    <tripinfo id="flow08.2" depart="8.00" departLane="w_t_0" departPos="5.10" departSpeed="0.00" departDelay="1.07" arrival="39.00" arrivalLane="t_s_0" arrivalPos="136.25" arrivalSpeed="13.26" duration="31.00" routeLength="293.40" waitingTime="0.00" waitingCount="0" stopTime="0.00" timeLoss="9.23" rerouteNo="0" devices="tripinfo_flow08.2" vType="CarA" speedFactor="1.03" vaporized=""/>
    <tripinfo id="flow08.3" depart="10.00" departLane="w_t_0" departPos="5.10" departSpeed="0.00" departDelay="1.56" arrival="41.00" arrivalLane="t_s_0" arrivalPos="136.25" arrivalSpeed="12.82" duration="31.00" routeLength="293.40" waitingTime="0.00" waitingCount="0" stopTime="0.00" timeLoss="6.65" rerouteNo="0" devices="tripinfo_flow08.3" vType="CarA" speedFactor="0.93" vaporized=""/>
    <tripinfo id="flow11.0" depart="13.00" departLane="e_t_0" departPos="5.10" departSpeed="0.00" departDelay="1.02" arrival="43.00" arrivalLane="t_s_0" arrivalPos="136.25" arrivalSpeed="17.16" duration="30.00" routeLength="279.21" waitingTime="1.00" waitingCount="1" stopTime="0.00" timeLoss="12.66" rerouteNo="0" devices="tripinfo_flow11.0" vType="CarA" speedFactor="1.25" vaporized=""/>
    <tripinfo id="flow05.2" depart="14.00" departLane="s_t_0" departPos="5.10" departSpeed="0.00" departDelay="0.48" arrival="43.00" arrivalLane="t_w_0" arrivalPos="136.25" arrivalSpeed="11.04" duration="29.00" routeLength="279.21" waitingTime="0.00" waitingCount="0" stopTime="0.00" timeLoss="5.03" rerouteNo="0" devices="tripinfo_flow05.2" vType="CarA" speedFactor="0.88" vaporized=""/>
    <tripinfo id="flow06.0" depart="17.00" departLane="s_t_0" departPos="5.10" departSpeed="0.00" departDelay="3.45" arrival="44.00" arrivalLane="t_e_0" arrivalPos="136.25" arrivalSpeed="13.75" duration="27.00" routeLength="293.40" waitingTime="0.00" waitingCount="0" stopTime="0.00" timeLoss="5.23" rerouteNo="0" devices="tripinfo_flow06.0" vType="CarA" speedFactor="1.02" vaporized=""/>
    <tripinfo id="flow05.3" depart="21.00" departLane="s_t_0" departPos="5.10" departSpeed="0.00" departDelay="4.34" arrival="47.00" arrivalLane="t_w_0" arrivalPos="136.25" arrivalSpeed="13.35" duration="26.00" routeLength="279.21" waitingTime="0.00" waitingCount="0" stopTime="0.00" timeLoss="5.54" rerouteNo="0" devices="tripinfo_flow05.3" vType="CarA" speedFactor="1.03" vaporized=""/>
    <tripinfo id="flow06.1" depart="19.00" departLane="s_t_0" departPos="5.10" departSpeed="0.00" departDelay="5.26" arrival="49.00" arrivalLane="t_e_0" arrivalPos="136.25" arrivalSpeed="11.86" duration="30.00" routeLength="293.40" waitingTime="0.00" waitingCount="0" stopTime="0.00" timeLoss="4.15" rerouteNo="0" devices="tripinfo_flow06.1" vType="CarA" speedFactor="0.85" vaporized=""/>
    <tripinfo id="flow01.0" depart="21.00" departLane="n_t_0" departPos="5.10" departSpeed="0.00" departDelay="0.58" arrival="55.00" arrivalLane="t_s_0" arrivalPos="136.25" arrivalSpeed="13.80" duration="34.00" routeLength="294.90" waitingTime="5.00" waitingCount="1" stopTime="0.00" timeLoss="13.87" rerouteNo="0" devices="tripinfo_flow01.0" vType="CarA" speedFactor="1.06" vaporized=""/>
    <tripinfo id="flow01.1" depart="26.00" departLane="n_t_0" departPos="5.10" departSpeed="0.00" departDelay="0.53" arrival="57.00" arrivalLane="t_s_0" arrivalPos="136.25" arrivalSpeed="15.07" duration="31.00" routeLength="294.90" waitingTime="0.00" waitingCount="0" stopTime="0.00" timeLoss="11.57" rerouteNo="0" devices="tripinfo_flow01.1" vType="CarA" speedFactor="1.12" vaporized=""/>
    <tripinfo id="flow05.4" depart="32.00" departLane="s_t_0" departPos="5.10" departSpeed="0.00" departDelay="0.48" arrival="57.00" arrivalLane="t_w_0" arrivalPos="136.25" arrivalSpeed="14.72" duration="25.00" routeLength="279.21" waitingTime="0.00" waitingCount="0" stopTime="0.00" timeLoss="5.75" rerouteNo="0" devices="tripinfo_flow05.4" vType="CarA" speedFactor="1.07" vaporized=""/>
    <tripinfo id="flow01.2" depart="28.00" departLane="n_t_0" departPos="5.10" departSpeed="0.00" departDelay="0.57" arrival="60.00" arrivalLane="t_s_0" arrivalPos="136.25" arrivalSpeed="13.19" duration="32.00" routeLength="294.90" waitingTime="0.00" waitingCount="0" stopTime="0.00" timeLoss="9.59" rerouteNo="0" devices="tripinfo_flow01.2" vType="CarA" speedFactor="0.96" vaporized=""/>
    <tripinfo id="flow08.4" depart="33.00" departLane="w_t_0" departPos="5.10" departSpeed="0.00" departDelay="1.83" arrival="67.00" arrivalLane="t_s_0" arrivalPos="136.25" arrivalSpeed="14.89" duration="34.00" routeLength="293.40" waitingTime="3.00" waitingCount="1" stopTime="0.00" timeLoss="14.66" rerouteNo="0" devices="tripinfo_flow08.4" vType="CarA" speedFactor="1.14" vaporized=""/>
    <tripinfo id="flow05.5" depart="43.00" departLane="s_t_0" departPos="5.10" departSpeed="0.00" departDelay="0.81" arrival="67.00" arrivalLane="t_w_0" arrivalPos="136.25" arrivalSpeed="13.87" duration="24.00" routeLength="279.21" waitingTime="0.00" waitingCount="0" stopTime="0.00" timeLoss="5.07" rerouteNo="0" devices="tripinfo_flow05.5" vType="CarA" speedFactor="1.09" vaporized=""/>
    <tripinfo id="flow03.2" depart="45.00" departLane="n_t_0" departPos="5.10" departSpeed="0.00" departDelay="0.39" arrival="74.00" arrivalLane="t_e_0" arrivalPos="136.25" arrivalSpeed="12.19" duration="29.00" routeLength="279.21" waitingTime="0.00" waitingCount="0" stopTime="0.00" timeLoss="5.41" rerouteNo="0" devices="tripinfo_flow03.2" vType="CarA" speedFactor="0.91" vaporized=""/>
    <tripinfo id="flow03.3" depart="51.00" departLane="n_t_0" departPos="5.10" departSpeed="0.00" departDelay="0.95" arrival="76.00" arrivalLane="t_e_0" arrivalPos="136.25" arrivalSpeed="15.28" duration="25.00" routeLength="279.21" waitingTime="0.00" waitingCount="0" stopTime="0.00" timeLoss="6.22" rerouteNo="0" devices="tripinfo_flow03.3" vType="CarA" speedFactor="1.16" vaporized=""/>
    <tripinfo id="flow08.5" depart="50.00" departLane="w_t_0" departPos="5.10" departSpeed="0.00" departDelay="0.35" arrival="80.00" arrivalLane="t_s_0" arrivalPos="136.25" arrivalSpeed="11.50" duration="30.00" routeLength="293.40" waitingTime="0.00" waitingCount="0" stopTime="0.00" timeLoss="4.78" rerouteNo="0" devices="tripinfo_flow08.5" vType="CarA" speedFactor="0.87" vaporized=""/>
    <tripinfo id="flow12.1" depart="58.00" departLane="e_t_0" departPos="5.10" departSpeed="0.00" departDelay="4.50" arrival="83.00" arrivalLane="t_n_0" arrivalPos="136.25" arrivalSpeed="14.74" duration="25.00" routeLength="293.40" waitingTime="0.00" waitingCount="0" stopTime="0.00" timeLoss="4.60" rerouteNo="0" devices="tripinfo_flow12.1" vType="CarA" speedFactor="1.09" vaporized=""/>
    <tripinfo id="flow08.6" depart="54.00" departLane="w_t_0" departPos="5.10" departSpeed="0.00" departDelay="0.58" arrival="85.00" arrivalLane="t_s_0" arrivalPos="136.25" arrivalSpeed="10.60" duration="31.00" routeLength="293.40" waitingTime="0.00" waitingCount="0" stopTime="0.00" timeLoss="4.41" rerouteNo="0" devices="tripinfo_flow08.6" vType="CarA" speedFactor="0.82" vaporized=""/>
    <tripinfo id="flow08.7" depart="58.00" departLane="w_t_0" departPos="5.10" departSpeed="0.00" departDelay="0.84" arrival="87.00" arrivalLane="t_s_0" arrivalPos="136.25" arrivalSpeed="13.85" duration="29.00" routeLength="293.40" waitingTime="0.00" waitingCount="0" stopTime="0.00" timeLoss="8.25" rerouteNo="0" devices="tripinfo_flow08.7" vType="CarA" speedFactor="1.07" vaporized=""/>
    <tripinfo id="flow03.4" depart="61.00" departLane="n_t_0" departPos="5.10" departSpeed="0.00" departDelay="0.91" arrival="87.00" arrivalLane="t_e_0" arrivalPos="136.25" arrivalSpeed="13.69" duration="26.00" routeLength="279.21" waitingTime="0.00" waitingCount="0" stopTime="0.00" timeLoss="5.66" rerouteNo="0" devices="tripinfo_flow03.4" vType="CarA" speedFactor="1.04" vaporized=""/>
    <tripinfo id="flow08.8" depart="66.00" departLane="w_t_0" departPos="5.10" departSpeed="0.00" departDelay="0.28" arrival="92.00" arrivalLane="t_s_0" arrivalPos="136.25" arrivalSpeed="13.11" duration="26.00" routeLength="293.40" waitingTime="0.00" waitingCount="0" stopTime="0.00" timeLoss="4.40" rerouteNo="0" devices="tripinfo_flow08.8" vType="CarA" speedFactor="1.02" vaporized=""/>
    <tripinfo id="flow12.2" depart="67.00" departLane="e_t_0" departPos="5.10" departSpeed="0.00" departDelay="10.83" arrival="94.00" arrivalLane="t_n_0" arrivalPos="136.25" arrivalSpeed="12.97" duration="27.00" routeLength="293.40" waitingTime="0.00" waitingCount="0" stopTime="0.00" timeLoss="4.58" rerouteNo="0" devices="tripinfo_flow12.2" vType="CarA" speedFactor="0.98" vaporized=""/>
    <tripinfo id="flow08.9" depart="67.00" departLane="w_t_0" departPos="5.10" departSpeed="0.00" departDelay="0.54" arrival="94.00" arrivalLane="t_s_0" arrivalPos="136.25" arrivalSpeed="14.29" duration="27.00" routeLength="293.40" waitingTime="0.00" waitingCount="0" stopTime="0.00" timeLoss="6.82" rerouteNo="0" devices="tripinfo_flow08.9" vType="CarA" speedFactor="1.11" vaporized=""/>
    <tripinfo id="flow09.0" depart="18.00" departLane="w_t_0" departPos="5.10" departSpeed="0.00" departDelay="0.70" arrival="100.00" arrivalLane="t_n_0" arrivalPos="136.25" arrivalSpeed="15.71" duration="82.00" routeLength="279.21" waitingTime="53.00" waitingCount="1" stopTime="0.00" timeLoss="62.94" rerouteNo="0" devices="tripinfo_flow09.0" vType="CarA" speedFactor="1.14" vaporized=""/>
    <tripinfo id="flow11.1" depart="55.00" departLane="e_t_0" departPos="5.10" departSpeed="0.00" departDelay="1.83" arrival="101.00" arrivalLane="t_s_0" arrivalPos="136.25" arrivalSpeed="14.74" duration="46.00" routeLength="279.21" waitingTime="16.00" waitingCount="1" stopTime="0.00" timeLoss="25.54" rerouteNo="0" devices="tripinfo_flow11.1" vType="CarA" speedFactor="1.07" vaporized=""/>
    <tripinfo id="flow10.0" depart="9.00" departLane="e_t_0" departPos="5.10" departSpeed="0.00" departDelay="0.34" arrival="103.00" arrivalLane="t_w_0" arrivalPos="136.25" arrivalSpeed="11.40" duration="94.00" routeLength="294.90" waitingTime="59.00" waitingCount="1" stopTime="0.00" timeLoss="69.36" rerouteNo="0" devices="tripinfo_flow10.0" vType="CarA" speedFactor="0.87" vaporized=""/>
    <tripinfo id="flow07.0" depart="27.00" departLane="w_t_0" departPos="5.10" departSpeed="0.00" departDelay="0.55" arrival="103.00" arrivalLane="t_e_0" arrivalPos="136.25" arrivalSpeed="12.46" duration="76.00" routeLength="294.90" waitingTime="44.00" waitingCount="1" stopTime="0.00" timeLoss="52.20" rerouteNo="0" devices="tripinfo_flow07.0" vType="CarA" speedFactor="0.93" vaporized=""/>
    <tripinfo id="flow09.1" depart="42.00" departLane="w_t_0" departPos="5.10" departSpeed="0.00" departDelay="0.60" arrival="103.00" arrivalLane="t_n_0" arrivalPos="136.25" arrivalSpeed="13.58" duration="61.00" routeLength="279.21" waitingTime="30.00" waitingCount="1" stopTime="0.00" timeLoss="40.49" rerouteNo="0" devices="tripinfo_flow09.1" vType="CarA" speedFactor="1.06" vaporized=""/>
    <tripinfo id="flow11.2" depart="64.00" departLane="e_t_0" departPos="5.10" departSpeed="0.00" departDelay="8.89" arrival="104.00" arrivalLane="t_s_0" arrivalPos="136.25" arrivalSpeed="13.09" duration="40.00" routeLength="279.21" waitingTime="8.00" waitingCount="1" stopTime="0.00" timeLoss="17.33" rerouteNo="0" devices="tripinfo_flow11.2" vType="CarA" speedFactor="0.96" vaporized=""/>
    <tripinfo id="flow10.1" depart="38.00" departLane="e_t_0" departPos="5.10" departSpeed="0.00" departDelay="0.63" arrival="105.00" arrivalLane="t_w_0" arrivalPos="136.25" arrivalSpeed="13.37" duration="67.00" routeLength="294.90" waitingTime="34.00" waitingCount="1" stopTime="0.00" timeLoss="45.22" rerouteNo="0" devices="tripinfo_flow10.1" vType="CarA" speedFactor="1.00" vaporized=""/>
    <tripinfo id="flow07.1" depart="30.00" departLane="w_t_0" departPos="5.10" departSpeed="0.00" departDelay="1.17" arrival="108.00" arrivalLane="t_e_0" arrivalPos="136.25" arrivalSpeed="9.42" duration="78.00" routeLength="294.90" waitingTime="40.00" waitingCount="1" stopTime="0.00" timeLoss="49.49" rerouteNo="0" devices="tripinfo_flow07.1" vType="CarA" speedFactor="0.77" vaporized=""/>
    <tripinfo id="flow11.3" depart="71.00" departLane="e_t_0" departPos="5.10" departSpeed="0.00" departDelay="8.20" arrival="109.00" arrivalLane="t_s_0" arrivalPos="136.25" arrivalSpeed="10.60" duration="38.00" routeLength="279.21" waitingTime="1.00" waitingCount="1" stopTime="0.00" timeLoss="12.10" rerouteNo="0" devices="tripinfo_flow11.3" vType="CarA" speedFactor="0.82" vaporized=""/>
    <tripinfo id="flow11.4" depart="78.00" departLane="e_t_0" departPos="5.10" departSpeed="0.00" departDelay="3.82" arrival="111.00" arrivalLane="t_s_0" arrivalPos="136.25" arrivalSpeed="13.88" duration="33.00" routeLength="279.21" waitingTime="0.00" waitingCount="0" stopTime="0.00" timeLoss="13.49" rerouteNo="0" devices="tripinfo_flow11.4" vType="CarA" speedFactor="1.10" vaporized=""/>
    <tripinfo id="flow04.0" depart="35.00" departLane="s_t_0" departPos="5.10" departSpeed="0.00" departDelay="2.06" arrival="113.00" arrivalLane="t_n_0" arrivalPos="136.25" arrivalSpeed="12.49" duration="78.00" routeLength="294.90" waitingTime="46.00" waitingCount="1" stopTime="0.00" timeLoss="54.23" rerouteNo="0" devices="tripinfo_flow04.0" vType="CarA" speedFactor="0.93" vaporized=""/>
    <tripinfo id="flow04.1" depart="46.00" departLane="s_t_0" departPos="5.10" departSpeed="0.00" departDelay="0.59" arrival="118.00" arrivalLane="t_n_0" arrivalPos="136.25" arrivalSpeed="9.16" duration="72.00" routeLength="294.90" waitingTime="35.00" waitingCount="1" stopTime="0.00" timeLoss="43.12" rerouteNo="0" devices="tripinfo_flow04.1" vType="CarA" speedFactor="0.74" vaporized=""/>
    <tripinfo id="flow07.2" depart="60.00" departLane="w_t_0" departPos="5.10" departSpeed="0.00" departDelay="1.42" arrival="121.00" arrivalLane="t_e_0" arrivalPos="136.25" arrivalSpeed="14.95" duration="61.00" routeLength="294.90" waitingTime="27.00" waitingCount="2" stopTime="0.00" timeLoss="41.38" rerouteNo="0" devices="tripinfo_flow07.2" vType="CarA" speedFactor="1.09" vaporized=""/>
    <tripinfo id="flow09.2" depart="79.00" departLane="w_t_0" departPos="5.10" departSpeed="0.00" departDelay="0.65" arrival="121.00" arrivalLane="t_n_0" arrivalPos="136.25" arrivalSpeed="12.77" duration="42.00" routeLength="279.21" waitingTime="11.00" waitingCount="1" stopTime="0.00" timeLoss="20.20" rerouteNo="0" devices="tripinfo_flow09.2" vType="CarA" speedFactor="0.96" vaporized=""/>
    <tripinfo id="flow11.5" depart="93.00" departLane="e_t_0" departPos="5.10" departSpeed="0.00" departDelay="0.19" arrival="121.00" arrivalLane="t_s_0" arrivalPos="136.25" arrivalSpeed="12.88" duration="28.00" routeLength="279.21" waitingTime="0.00" waitingCount="0" stopTime="0.00" timeLoss="5.47" rerouteNo="0" devices="tripinfo_flow11.5" vType="CarA" speedFactor="0.96" vaporized=""/>
    <tripinfo id="flow10.2" depart="41.00" departLane="e_t_0" departPos="5.10" departSpeed="0.00" departDelay="2.78" arrival="123.00" arrivalLane="t_w_0" arrivalPos="136.25" arrivalSpeed="12.50" duration="82.00" routeLength="294.90" waitingTime="43.00" waitingCount="2" stopTime="0.00" timeLoss="58.45" rerouteNo="0" devices="tripinfo_flow10.2" vType="CarA" speedFactor="0.93" vaporized=""/>
    <tripinfo id="flow07.3" depart="72.00" departLane="w_t_0" departPos="5.10" departSpeed="0.00" departDelay="0.34" arrival="124.00" arrivalLane="t_e_0" arrivalPos="136.25" arrivalSpeed="14.19" duration="52.00" routeLength="294.90" waitingTime="14.00" waitingCount="2" stopTime="0.00" timeLoss="31.57" rerouteNo="0" devices="tripinfo_flow07.3" vType="CarA" speedFactor="1.06" vaporized=""/>
    <tripinfo id="flow10.3" depart="53.00" departLane="e_t_0" departPos="5.10" departSpeed="0.00" departDelay="0.42" arrival="126.00" arrivalLane="t_w_0" arrivalPos="136.25" arrivalSpeed="12.51" duration="73.00" routeLength="294.90" waitingTime="32.00" waitingCount="2" stopTime="0.00" timeLoss="48.67" rerouteNo="0" devices="tripinfo_flow10.3" vType="CarA" speedFactor="0.90" vaporized=""/>
    <tripinfo id="flow10.4" depart="60.00" departLane="e_t_0" departPos="5.10" departSpeed="0.00" departDelay="4.31" arrival="128.00" arrivalLane="t_w_0" arrivalPos="136.25" arrivalSpeed="11.50" duration="68.00" routeLength="294.90" waitingTime="27.00" waitingCount="2" stopTime="0.00" timeLoss="43.74" rerouteNo="0" devices="tripinfo_flow10.4" vType="CarA" speedFactor="0.90" vaporized=""/>
    <tripinfo id="flow10.5" depart="62.00" departLane="e_t_0" departPos="5.10" departSpeed="0.00" departDelay="6.05" arrival="130.00" arrivalLane="t_w_0" arrivalPos="136.25" arrivalSpeed="14.81" duration="68.00" routeLength="294.90" waitingTime="25.00" waitingCount="2" stopTime="0.00" timeLoss="47.66" rerouteNo="0" devices="tripinfo_flow10.5" vType="CarA" speedFactor="1.09" vaporized=""/>
    <tripinfo id="flow10.6" depart="69.00" departLane="e_t_0" departPos="5.10" departSpeed="0.00" departDelay="7.23" arrival="132.00" arrivalLane="t_w_0" arrivalPos="136.25" arrivalSpeed="12.84" duration="63.00" routeLength="294.90" waitingTime="19.00" waitingCount="2" stopTime="0.00" timeLoss="40.12" rerouteNo="0" devices="tripinfo_flow10.6" vType="CarA" speedFactor="0.97" vaporized=""/>
    <tripinfo id="flow10.7" depart="74.00" departLane="e_t_0" departPos="5.10" departSpeed="0.00" departDelay="1.23" arrival="133.00" arrivalLane="t_w_0" arrivalPos="136.25" arrivalSpeed="14.27" duration="59.00" routeLength="294.90" waitingTime="16.00" waitingCount="2" stopTime="0.00" timeLoss="40.12" rerouteNo="0" devices="tripinfo_flow10.7" vType="CarA" speedFactor="1.14" vaporized=""/>
    <tripinfo id="flow10.8" depart="76.00" departLane="e_t_0" departPos="5.10" departSpeed="0.00" departDelay="3.09" arrival="135.00" arrivalLane="t_w_0" arrivalPos="136.25" arrivalSpeed="14.45" duration="59.00" routeLength="294.90" waitingTime="14.00" waitingCount="2" stopTime="0.00" timeLoss="38.67" rerouteNo="0" devices="tripinfo_flow10.8" vType="CarA" speedFactor="1.07" vaporized=""/>
    <tripinfo id="flow07.4" depart="110.00" departLane="w_t_0" departPos="5.10" departSpeed="0.00" departDelay="2.81" arrival="136.00" arrivalLane="t_e_0" arrivalPos="136.25" arrivalSpeed="12.60" duration="26.00" routeLength="294.90" waitingTime="0.00" waitingCount="0" stopTime="0.00" timeLoss="4.21" rerouteNo="0" devices="tripinfo_flow07.4" vType="CarA" speedFactor="1.00" vaporized=""/>
    <tripinfo id="flow10.9" depart="83.00" departLane="e_t_0" departPos="5.10" departSpeed="0.00" departDelay="0.11" arrival="137.00" arrivalLane="t_w_0" arrivalPos="136.25" arrivalSpeed="15.29" duration="54.00" routeLength="294.90" waitingTime="8.00" waitingCount="2" stopTime="0.00" timeLoss="34.15" rerouteNo="0" devices="tripinfo_flow10.9" vType="CarA" speedFactor="1.12" vaporized=""/>
    <tripinfo id="flow09.3" depart="107.00" departLane="w_t_0" departPos="5.10" departSpeed="0.00" departDelay="0.34" arrival="138.00" arrivalLane="t_n_0" arrivalPos="136.25" arrivalSpeed="10.87" duration="31.00" routeLength="279.21" waitingTime="0.00" waitingCount="0" stopTime="0.00" timeLoss="4.70" rerouteNo="0" devices="tripinfo_flow09.3" vType="CarA" speedFactor="0.81" vaporized=""/>
    <tripinfo id="flow11.6" depart="109.00" departLane="e_t_0" departPos="5.10" departSpeed="0.00" departDelay="1.53" arrival="138.00" arrivalLane="t_s_0" arrivalPos="136.25" arrivalSpeed="12.08" duration="29.00" routeLength="279.21" waitingTime="0.00" waitingCount="0" stopTime="0.00" timeLoss="5.80" rerouteNo="0" devices="tripinfo_flow11.6" vType="CarA" speedFactor="0.91" vaporized=""/>
    <tripinfo id="flow10.10" depart="87.00" departLane="e_t_0" departPos="5.10" departSpeed="0.00" departDelay="0.88" arrival="140.00" arrivalLane="t_w_0" arrivalPos="136.25" arrivalSpeed="11.12" duration="53.00" routeLength="294.90" waitingTime="7.00" waitingCount="1" stopTime="0.00" timeLoss="27.91" rerouteNo="0" devices="tripinfo_flow10.10" vType="CarA" speedFactor="0.87" vaporized=""/>
    <tripinfo id="flow10.11" depart="89.00" departLane="e_t_0" departPos="5.10" departSpeed="0.00" departDelay="1.82" arrival="141.00" arrivalLane="t_w_0" arrivalPos="136.25" arrivalSpeed="13.47" duration="52.00" routeLength="294.90" waitingTime="5.00" waitingCount="1" stopTime="0.00" timeLoss="30.13" rerouteNo="0" devices="tripinfo_flow10.11" vType="CarA" speedFactor="0.97" vaporized=""/>
    <tripinfo id="flow11.7" depart="112.00" departLane="e_t_0" departPos="5.10" departSpeed="0.00" departDelay="3.70" arrival="141.00" arrivalLane="t_s_0" arrivalPos="136.25" arrivalSpeed="12.30" duration="29.00" routeLength="279.21" waitingTime="0.00" waitingCount="0" stopTime="0.00" timeLoss="5.41" rerouteNo="0" devices="tripinfo_flow11.7" vType="CarA" speedFactor="0.91" vaporized=""/>
    <tripinfo id="flow10.12" depart="96.00" departLane="e_t_0" departPos="5.10" departSpeed="0.00" departDelay="1.98" arrival="143.00" arrivalLane="t_w_0" arrivalPos="136.25" arrivalSpeed="14.31" duration="47.00" routeLength="294.90" waitingTime="5.00" waitingCount="1" stopTime="0.00" timeLoss="27.54" rerouteNo="0" devices="tripinfo_flow10.12" vType="CarA" speedFactor="1.11" vaporized=""/>
    <tripinfo id="flow07.5" depart="115.00" departLane="w_t_0" departPos="5.10" departSpeed="0.00" departDelay="4.61" arrival="143.00" arrivalLane="t_e_0" arrivalPos="136.25" arrivalSpeed="11.30" duration="28.00" routeLength="294.90" waitingTime="0.00" waitingCount="0" stopTime="0.00" timeLoss="3.59" rerouteNo="0" devices="tripinfo_flow07.5" vType="CarA" speedFactor="0.87" vaporized=""/>
    <tripinfo id="flow09.4" depart="118.00" departLane="w_t_0" departPos="5.10" departSpeed="0.00" departDelay="3.22" arrival="145.00" arrivalLane="t_n_0" arrivalPos="136.25" arrivalSpeed="13.57" duration="27.00" routeLength="279.21" waitingTime="0.00" waitingCount="0" stopTime="0.00" timeLoss="6.14" rerouteNo="0" devices="tripinfo_flow09.4" vType="CarA" speedFactor="0.99" vaporized=""/>
    <tripinfo id="flow02.0" depart="30.00" departLane="n_t_0" departPos="5.10" departSpeed="0.00" departDelay="0.85" arrival="148.00" arrivalLane="t_w_0" arrivalPos="136.25" arrivalSpeed="14.15" duration="118.00" routeLength="293.40" waitingTime="86.00" waitingCount="1" stopTime="0.00" timeLoss="96.68" rerouteNo="0" devices="tripinfo_flow02.0" vType="CarA" speedFactor="1.05" vaporized=""/>
    <tripinfo id="flow06.2" depart="24.00" departLane="s_t_0" departPos="5.10" departSpeed="0.00" departDelay="6.98" arrival="149.00" arrivalLane="t_e_0" arrivalPos="136.25" arrivalSpeed="12.70" duration="125.00" routeLength="293.40" waitingTime="95.00" waitingCount="1" stopTime="0.00" timeLoss="102.21" rerouteNo="0" devices="tripinfo_flow06.2" vType="CarA" speedFactor="0.98" vaporized=""/>
    <tripinfo id="flow09.5" depart="124.00" departLane="w_t_0" departPos="5.10" departSpeed="0.00" departDelay="0.65" arrival="150.00" arrivalLane="t_n_0" arrivalPos="136.25" arrivalSpeed="14.85" duration="26.00" routeLength="279.21" waitingTime="0.00" waitingCount="0" stopTime="0.00" timeLoss="6.19" rerouteNo="0" devices="tripinfo_flow09.5" vType="CarA" speedFactor="1.08" vaporized=""/>
    <tripinfo id="flow02.1" depart="40.00" departLane="n_t_0" departPos="5.10" departSpeed="0.00" departDelay="0.47" arrival="151.00" arrivalLane="t_w_0" arrivalPos="136.25" arrivalSpeed="12.73" duration="111.00" routeLength="293.40" waitingTime="79.00" waitingCount="1" stopTime="0.00" timeLoss="88.29" rerouteNo="0" devices="tripinfo_flow02.1" vType="CarA" speedFactor="0.99" vaporized=""/>
    <tripinfo id="flow06.3" depart="38.00" departLane="s_t_0" departPos="5.10" departSpeed="0.00" departDelay="0.42" arrival="152.00" arrivalLane="t_e_0" arrivalPos="136.25" arrivalSpeed="12.10" duration="114.00" routeLength="293.40" waitingTime="81.00" waitingCount="1" stopTime="0.00" timeLoss="89.76" rerouteNo="0" devices="tripinfo_flow06.3" vType="CarA" speedFactor="0.91" vaporized=""/>
    <tripinfo id="flow05.6" depart="115.00" departLane="s_t_0" departPos="5.10" departSpeed="0.00" departDelay="0.83" arrival="156.00" arrivalLane="t_w_0" arrivalPos="136.25" arrivalSpeed="15.48" duration="41.00" routeLength="279.21" waitingTime="12.00" waitingCount="1" stopTime="0.00" timeLoss="22.85" rerouteNo="0" devices="tripinfo_flow05.6" vType="CarA" speedFactor="1.16" vaporized=""/>
    <tripinfo id="flow03.5" depart="94.00" departLane="n_t_0" departPos="5.10" departSpeed="0.00" departDelay="0.68" arrival="158.00" arrivalLane="t_e_0" arrivalPos="136.25" arrivalSpeed="12.81" duration="64.00" routeLength="279.21" waitingTime="33.00" waitingCount="1" stopTime="0.00" timeLoss="42.57" rerouteNo="0" devices="tripinfo_flow03.5" vType="CarA" speedFactor="0.98" vaporized=""/>
    <tripinfo id="flow08.10" depart="75.00" departLane="w_t_0" departPos="5.10" departSpeed="0.00" departDelay="0.11" arrival="159.00" arrivalLane="t_s_0" arrivalPos="136.25" arrivalSpeed="12.68" duration="84.00" routeLength="293.40" waitingTime="52.00" waitingCount="1" stopTime="0.00" timeLoss="61.37" rerouteNo="0" devices="tripinfo_flow08.10" vType="CarA" speedFactor="0.98" vaporized=""/>
    <tripinfo id="flow05.7" depart="125.00" departLane="s_t_0" departPos="5.10" departSpeed="0.00" departDelay="0.33" arrival="160.00" arrivalLane="t_w_0" arrivalPos="136.25" arrivalSpeed="13.22" duration="35.00" routeLength="279.21" waitingTime="4.00" waitingCount="1" stopTime="0.00" timeLoss="14.03" rerouteNo="0" devices="tripinfo_flow05.7" vType="CarA" speedFactor="1.02" vaporized=""/>
    <tripinfo id="flow08.11" depart="96.00" departLane="w_t_0" departPos="5.10" departSpeed="0.00" departDelay="0.70" arrival="161.00" arrivalLane="t_s_0" arrivalPos="136.25" arrivalSpeed="12.99" duration="65.00" routeLength="293.40" waitingTime="32.00" waitingCount="1" stopTime="0.00" timeLoss="43.19" rerouteNo="0" devices="tripinfo_flow08.11" vType="CarA" speedFactor="1.01" vaporized=""/>
    <tripinfo id="flow12.3" depart="100.00" departLane="e_t_0" departPos="5.10" departSpeed="0.00" departDelay="0.39" arrival="161.00" arrivalLane="t_n_0" arrivalPos="136.25" arrivalSpeed="11.25" duration="61.00" routeLength="293.40" waitingTime="26.00" waitingCount="1" stopTime="0.00" timeLoss="35.32" rerouteNo="0" devices="tripinfo_flow12.3" vType="CarA" speedFactor="0.86" vaporized=""/>