<?xml version="1.0" encoding="UTF-8"?>

<!-- generated on 2024-06-10 18:16:42 by Eclipse SUMO libsumo Version 1.20.0
<configuration xmlns:xsi="http://www.w3.org/2001/XMLSchema-instance" xsi:noNamespaceSchemaLocation="http://sumo.dlr.de/xsd/libsumoConfiguration.xsd">

    <input>
        <net-file value="sumo_rl/nets/2way-single-intersection/single-intersection-2.net.xml"/>
        <route-files value="sumo_rl/nets/2way-single-intersection/single-intersection-vhvh.rou.xml"/>
    </input>

    <output>
        <tripinfo-output value="outputs/l0.0001-normal-trained-10e5\tripinfos.xml"/>
    </output>

    <processing>
        <time-to-teleport value="-1"/>
        <waiting-time-memory value="1000"/>
        <max-depart-delay value="-1"/>
    </processing>

    <random_number>
        <random value="true"/>
    </random_number>

</configuration>
-->

<tripinfos xmlns:xsi="http://www.w3.org/2001/XMLSchema-instance" xsi:noNamespaceSchemaLocation="http://sumo.dlr.de/xsd/tripinfo_file.xsd">
    <tripinfo id="flow08.0" depart="11.00" departLane="w_t_0" departPos="5.10" departSpeed="0.00" departDelay="0.79" arrival="36.00" arrivalLane="t_s_0" arrivalPos="136.25" arrivalSpeed="15.34" duration="25.00" routeLength="293.40" waitingTime="0.00" waitingCount="0" stopTime="0.00" timeLoss="5.08" rerouteNo="0" devices="tripinfo_flow08.0" vType="CarA" speedFactor="1.13" vaporized=""/>
    <tripinfo id="flow05.0" depart="12.00" departLane="s_t_0" departPos="5.10" departSpeed="0.00" departDelay="0.40" arrival="43.00" arrivalLane="t_w_0" arrivalPos="136.25" arrivalSpeed="10.41" duration="31.00" routeLength="279.21" waitingTime="0.00" waitingCount="0" stopTime="0.00" timeLoss="5.80" rerouteNo="0" devices="tripinfo_flow05.0" vType="CarA" speedFactor="0.83" vaporized=""/>
    <tripinfo id="flow07.0" depart="5.00" departLane="w_t_0" departPos="5.10" departSpeed="0.00" departDelay="0.49" arrival="45.00" arrivalLane="t_e_0" arrivalPos="136.25" arrivalSpeed="13.49" duration="40.00" routeLength="294.90" waitingTime="8.00" waitingCount="1" stopTime="0.00" timeLoss="18.34" rerouteNo="0" devices="tripinfo_flow07.0" vType="CarA" speedFactor="1.00" vaporized=""/>
    <tripinfo id="flow05.1" depart="22.00" departLane="s_t_0" departPos="5.10" departSpeed="0.00" departDelay="0.63" arrival="48.00" arrivalLane="t_w_0" arrivalPos="136.25" arrivalSpeed="13.63" duration="26.00" routeLength="279.21" waitingTime="0.00" waitingCount="0" stopTime="0.00" timeLoss="5.21" rerouteNo="0" devices="tripinfo_flow05.1" vType="CarA" speedFactor="1.01" vaporized=""/>
    <tripinfo id="flow09.0" depart="35.00" departLane="w_t_0" departPos="5.10" departSpeed="0.00" departDelay="0.84" arrival="59.00" arrivalLane="t_n_0" arrivalPos="136.25" arrivalSpeed="16.08" duration="24.00" routeLength="279.21" waitingTime="0.00" waitingCount="0" stopTime="0.00" timeLoss="5.95" rerouteNo="0" devices="tripinfo_flow09.0" vType="CarA" speedFactor="1.19" vaporized=""/>
    <tripinfo id="flow02.0" depart="8.00" departLane="n_t_0" departPos="5.10" departSpeed="0.00" departDelay="0.87" arrival="60.00" arrivalLane="t_w_0" arrivalPos="136.25" arrivalSpeed="16.53" duration="52.00" routeLength="293.40" waitingTime="23.00" waitingCount="1" stopTime="0.00" timeLoss="33.14" rerouteNo="0" devices="tripinfo_flow02.0" vType="CarA" speedFactor="1.20" vaporized=""/>
    <tripinfo id="flow01.0" depart="4.00" departLane="n_t_0" departPos="5.10" departSpeed="0.00" departDelay="0.98" arrival="61.00" arrivalLane="t_s_0" arrivalPos="136.25" arrivalSpeed="12.96" duration="57.00" routeLength="294.90" waitingTime="25.00" waitingCount="1" stopTime="0.00" timeLoss="35.26" rerouteNo="0" devices="tripinfo_flow01.0" vType="CarA" speedFactor="1.00" vaporized=""/>
    <tripinfo id="flow03.0" depart="17.00" departLane="n_t_0" departPos="5.10" departSpeed="0.00" departDelay="4.45" arrival="61.00" arrivalLane="t_e_0" arrivalPos="136.25" arrivalSpeed="12.37" duration="44.00" routeLength="279.21" waitingTime="13.00" waitingCount="1" stopTime="0.00" timeLoss="21.32" rerouteNo="0" devices="tripinfo_flow03.0" vType="CarA" speedFactor="0.94" vaporized=""/>
    <tripinfo id="flow01.1" depart="10.00" departLane="n_t_0" departPos="5.10" departSpeed="0.00" departDelay="1.68" arrival="63.00" arrivalLane="t_s_0" arrivalPos="136.25" arrivalSpeed="13.09" duration="53.00" routeLength="294.90" waitingTime="22.00" waitingCount="1" stopTime="0.00" timeLoss="31.73" rerouteNo="0" devices="tripinfo_flow01.1" vType="CarA" speedFactor="1.03" vaporized=""/>
    <tripinfo id="flow02.1" depart="13.00" departLane="n_t_0" departPos="5.10" departSpeed="0.00" departDelay="3.00" arrival="64.00" arrivalLane="t_w_0" arrivalPos="136.25" arrivalSpeed="12.29" duration="51.00" routeLength="293.40" waitingTime="18.00" waitingCount="1" stopTime="0.00" timeLoss="26.92" rerouteNo="0" devices="tripinfo_flow02.1" vType="CarA" speedFactor="0.92" vaporized=""/>
    <tripinfo id="flow01.2" depart="14.00" departLane="n_t_0" departPos="5.10" departSpeed="0.00" departDelay="3.75" arrival="65.00" arrivalLane="t_s_0" arrivalPos="136.25" arrivalSpeed="12.12" duration="51.00" routeLength="294.90" waitingTime="19.00" waitingCount="1" stopTime="0.00" timeLoss="28.47" rerouteNo="0" devices="tripinfo_flow01.2" vType="CarA" speedFactor="0.95" vaporized=""/>
    <tripinfo id="flow02.2" depart="20.00" departLane="n_t_0" departPos="5.10" departSpeed="0.00" departDelay="6.60" arrival="67.00" arrivalLane="t_w_0" arrivalPos="136.25" arrivalSpeed="11.80" duration="47.00" routeLength="293.40" waitingTime="12.00" waitingCount="1" stopTime="0.00" timeLoss="21.34" rerouteNo="0" devices="tripinfo_flow02.2" vType="CarA" speedFactor="0.87" vaporized=""/>
    <tripinfo id="flow01.3" depart="21.00" departLane="n_t_0" departPos="5.10" departSpeed="0.00" departDelay="1.99" arrival="67.00" arrivalLane="t_s_0" arrivalPos="136.25" arrivalSpeed="14.24" duration="46.00" routeLength="294.90" waitingTime="14.00" waitingCount="1" stopTime="0.00" timeLoss="25.44" rerouteNo="0" devices="tripinfo_flow01.3" vType="CarA" speedFactor="1.06" vaporized=""/>
    <tripinfo id="flow01.4" depart="30.00" departLane="n_t_0" departPos="5.10" departSpeed="0.00" departDelay="0.47" arrival="69.00" arrivalLane="t_s_0" arrivalPos="136.25" arrivalSpeed="13.95" duration="39.00" routeLength="294.90" waitingTime="6.00" waitingCount="1" stopTime="0.00" timeLoss="18.85" rerouteNo="0" devices="tripinfo_flow01.4" vType="CarA" speedFactor="1.10" vaporized=""/>
    <tripinfo id="flow02.3" depart="38.00" departLane="n_t_0" departPos="5.10" departSpeed="0.00" departDelay="4.49" arrival="69.00" arrivalLane="t_w_0" arrivalPos="136.25" arrivalSpeed="12.38" duration="31.00" routeLength="293.40" waitingTime="0.00" waitingCount="0" stopTime="0.00" timeLoss="6.52" rerouteNo="0" devices="tripinfo_flow02.3" vType="CarA" speedFactor="0.92" vaporized=""/>
    <tripinfo id="flow01.5" depart="33.00" departLane="n_t_0" departPos="5.10" departSpeed="0.00" departDelay="1.81" arrival="71.00" arrivalLane="t_s_0" arrivalPos="136.25" arrivalSpeed="12.46" duration="38.00" routeLength="294.90" waitingTime="3.00" waitingCount="1" stopTime="0.00" timeLoss="15.90" rerouteNo="0" devices="tripinfo_flow01.5" vType="CarA" speedFactor="0.98" vaporized=""/>
    <tripinfo id="flow02.4" depart="44.00" departLane="n_t_0" departPos="5.10" departSpeed="0.00" departDelay="4.29" arrival="72.00" arrivalLane="t_w_0" arrivalPos="136.25" arrivalSpeed="12.23" duration="28.00" routeLength="293.40" waitingTime="0.00" waitingCount="0" stopTime="0.00" timeLoss="5.01" rerouteNo="0" devices="tripinfo_flow02.4" vType="CarA" speedFactor="0.96" vaporized=""/>
    <tripinfo id="flow01.6" depart="36.00" departLane="n_t_0" departPos="5.10" departSpeed="0.00" departDelay="2.40" arrival="75.00" arrivalLane="t_s_0" arrivalPos="136.25" arrivalSpeed="10.50" duration="39.00" routeLength="294.90" waitingTime="3.00" waitingCount="1" stopTime="0.00" timeLoss="13.28" rerouteNo="0" devices="tripinfo_flow01.6" vType="CarA" speedFactor="0.83" vaporized=""/>
    <tripinfo id="flow01.7" depart="40.00" departLane="n_t_0" departPos="5.10" departSpeed="0.00" departDelay="5.14" arrival="77.00" arrivalLane="t_s_0" arrivalPos="136.25" arrivalSpeed="10.97" duration="37.00" routeLength="294.90" waitingTime="0.00" waitingCount="0" stopTime="0.00" timeLoss="11.64" rerouteNo="0" devices="tripinfo_flow01.7" vType="CarA" speedFactor="0.85" vaporized=""/>
    <tripinfo id="flow03.1" depart="54.00" departLane="n_t_0" departPos="5.10" departSpeed="0.00" departDelay="2.38" arrival="77.00" arrivalLane="t_e_0" arrivalPos="136.25" arrivalSpeed="15.84" duration="23.00" routeLength="279.21" waitingTime="0.00" waitingCount="0" stopTime="0.00" timeLoss="6.01" rerouteNo="0" devices="tripinfo_flow03.1" vType="CarA" speedFactor="1.22" vaporized=""/>
    <tripinfo id="flow04.0" depart="1.00" departLane="s_t_0" departPos="5.10" departSpeed="0.00" departDelay="0.74" arrival="81.00" arrivalLane="t_n_0" arrivalPos="136.25" arrivalSpeed="15.33" duration="80.00" routeLength="294.90" waitingTime="50.00" waitingCount="1" stopTime="0.00" timeLoss="60.95" rerouteNo="0" devices="tripinfo_flow04.0" vType="CarA" speedFactor="1.12" vaporized=""/>
    <tripinfo id="flow05.2" depart="32.00" departLane="s_t_0" departPos="5.10" departSpeed="0.00" departDelay="3.58" arrival="81.00" arrivalLane="t_w_0" arrivalPos="136.25" arrivalSpeed="13.81" duration="49.00" routeLength="279.21" waitingTime="19.00" waitingCount="1" stopTime="0.00" timeLoss="28.94" rerouteNo="0" devices="tripinfo_flow05.2" vType="CarA" speedFactor="1.07" vaporized=""/>
    <tripinfo id="flow11.0" depart="8.00" departLane="e_t_0" departPos="5.10" departSpeed="0.00" departDelay="0.30" arrival="82.00" arrivalLane="t_s_0" arrivalPos="136.25" arrivalSpeed="12.22" duration="74.00" routeLength="279.21" waitingTime="41.00" waitingCount="1" stopTime="0.00" timeLoss="51.00" rerouteNo="0" devices="tripinfo_flow11.0" vType="CarA" speedFactor="0.93" vaporized=""/>
    <tripinfo id="flow04.1" depart="27.00" departLane="s_t_0" departPos="5.10" departSpeed="0.00" departDelay="0.56" arrival="84.00" arrivalLane="t_n_0" arrivalPos="136.25" arrivalSpeed="13.89" duration="57.00" routeLength="294.90" waitingTime="25.00" waitingCount="1" stopTime="0.00" timeLoss="35.74" rerouteNo="0" devices="tripinfo_flow04.1" vType="CarA" speedFactor="1.02" vaporized=""/>
    <tripinfo id="flow11.1" depart="34.00" departLane="e_t_0" departPos="5.10" departSpeed="0.00" departDelay="3.00" arrival="84.00" arrivalLane="t_s_0" arrivalPos="136.25" arrivalSpeed="15.93" duration="50.00" routeLength="279.21" waitingTime="19.00" waitingCount="1" stopTime="0.00" timeLoss="31.64" rerouteNo="0" devices="tripinfo_flow11.1" vType="CarA" speedFactor="1.19" vaporized=""/>
    <tripinfo id="flow05.3" depart="59.00" departLane="s_t_0" departPos="5.10" departSpeed="0.00" departDelay="3.26" arrival="85.00" arrivalLane="t_w_0" arrivalPos="136.25" arrivalSpeed="14.04" duration="26.00" routeLength="279.21" waitingTime="0.00" waitingCount="0" stopTime="0.00" timeLoss="6.46" rerouteNo="0" devices="tripinfo_flow05.3" vType="CarA" speedFactor="1.09" vaporized=""/>
    <tripinfo id="flow05.4" depart="62.00" departLane="s_t_0" departPos="5.10" departSpeed="0.00" departDelay="3.45" arrival="93.00" arrivalLane="t_w_0" arrivalPos="136.25" arrivalSpeed="11.09" duration="31.00" routeLength="279.21" waitingTime="0.00" waitingCount="0" stopTime="0.00" timeLoss="5.86" rerouteNo="0" devices="tripinfo_flow05.4" vType="CarA" speedFactor="0.86" vaporized=""/>
    <tripinfo id="flow08.1" depart="32.00" departLane="w_t_0" departPos="5.10" departSpeed="0.00" departDelay="0.50" arrival="94.00" arrivalLane="t_s_0" arrivalPos="136.25" arrivalSpeed="11.93" duration="62.00" routeLength="293.40" waitingTime="29.00" waitingCount="1" stopTime="0.00" timeLoss="36.94" rerouteNo="0" devices="tripinfo_flow08.1" vType="CarA" speedFactor="0.90" vaporized=""/>
    <tripinfo id="flow12.0" depart="37.00" departLane="e_t_0" departPos="5.10" departSpeed="0.00" departDelay="1.95" arrival="94.00" arrivalLane="t_n_0" arrivalPos="136.25" arrivalSpeed="11.31" duration="57.00" routeLength="293.40" waitingTime="23.00" waitingCount="1" stopTime="0.00" timeLoss="31.10" rerouteNo="0" devices="tripinfo_flow12.0" vType="CarA" speedFactor="0.84" vaporized=""/>
    <tripinfo id="flow05.5" depart="65.00" departLane="s_t_0" departPos="5.10" departSpeed="0.00" departDelay="6.11" arrival="94.00" arrivalLane="t_w_0" arrivalPos="136.25" arrivalSpeed="13.75" duration="29.00" routeLength="279.21" waitingTime="0.00" waitingCount="0" stopTime="0.00" timeLoss="9.31" rerouteNo="0" devices="tripinfo_flow05.5" vType="CarA" speedFactor="1.08" vaporized=""/>
    <tripinfo id="flow08.2" depart="56.00" departLane="w_t_0" departPos="5.10" departSpeed="0.00" departDelay="0.31" arrival="95.00" arrivalLane="t_s_0" arrivalPos="136.25" arrivalSpeed="12.47" duration="39.00" routeLength="293.40" waitingTime="5.00" waitingCount="1" stopTime="0.00" timeLoss="17.11" rerouteNo="0" devices="tripinfo_flow08.2" vType="CarA" speedFactor="0.99" vaporized=""/>
    <tripinfo id="flow12.1" depart="41.00" departLane="e_t_0" departPos="5.10" departSpeed="0.00" departDelay="0.93" arrival="96.00" arrivalLane="t_n_0" arrivalPos="136.25" arrivalSpeed="13.10" duration="55.00" routeLength="293.40" waitingTime="21.00" waitingCount="1" stopTime="0.00" timeLoss="32.17" rerouteNo="0" devices="tripinfo_flow12.1" vType="CarA" speedFactor="0.98" vaporized=""/>
    <tripinfo id="flow08.3" depart="60.00" departLane="w_t_0" departPos="5.10" departSpeed="0.00" departDelay="3.24" arrival="98.00" arrivalLane="t_s_0" arrivalPos="136.25" arrivalSpeed="11.62" duration="38.00" routeLength="293.40" waitingTime="3.00" waitingCount="1" stopTime="0.00" timeLoss="13.68" rerouteNo="0" devices="tripinfo_flow08.3" vType="CarA" speedFactor="0.92" vaporized=""/>
    <tripinfo id="flow05.6" depart="69.00" departLane="s_t_0" departPos="5.10" departSpeed="0.00" departDelay="4.39" arrival="98.00" arrivalLane="t_w_0" arrivalPos="136.25" arrivalSpeed="11.86" duration="29.00" routeLength="279.21" waitingTime="0.00" waitingCount="0" stopTime="0.00" timeLoss="5.07" rerouteNo="0" devices="tripinfo_flow05.6" vType="CarA" speedFactor="0.88" vaporized=""/>
    <tripinfo id="flow12.2" depart="70.00" departLane="e_t_0" departPos="5.10" departSpeed="0.00" departDelay="0.15" arrival="100.00" arrivalLane="t_n_0" arrivalPos="136.25" arrivalSpeed="11.55" duration="30.00" routeLength="293.40" waitingTime="0.00" waitingCount="0" stopTime="0.00" timeLoss="4.59" rerouteNo="0" devices="tripinfo_flow12.2" vType="CarA" speedFactor="0.88" vaporized=""/>
    <tripinfo id="flow11.2" depart="43.00" departLane="e_t_0" departPos="5.10" departSpeed="0.00" departDelay="1.76" arrival="104.00" arrivalLane="t_s_0" arrivalPos="136.25" arrivalSpeed="13.58" duration="61.00" routeLength="279.21" waitingTime="28.00" waitingCount="2" stopTime="0.00" timeLoss="41.03" rerouteNo="0" devices="tripinfo_flow11.2" vType="CarA" speedFactor="1.05" vaporized=""/>
    <tripinfo id="flow10.0" depart="14.00" departLane="e_t_0" departPos="5.10" departSpeed="0.00" departDelay="0.79" arrival="105.00" arrivalLane="t_w_0" arrivalPos="136.25" arrivalSpeed="14.83" duration="91.00" routeLength="294.90" waitingTime="61.00" waitingCount="1" stopTime="0.00" timeLoss="72.23" rerouteNo="0" devices="tripinfo_flow10.0" vType="CarA" speedFactor="1.16" vaporized=""/>
    <tripinfo id="flow09.1" depart="57.00" departLane="w_t_0" departPos="5.10" departSpeed="0.00" departDelay="1.95" arrival="106.00" arrivalLane="t_n_0" arrivalPos="136.25" arrivalSpeed="12.58" duration="49.00" routeLength="279.21" waitingTime="17.00" waitingCount="1" stopTime="0.00" timeLoss="27.18" rerouteNo="0" devices="tripinfo_flow09.1" vType="CarA" speedFactor="0.99" vaporized=""/>
    <tripinfo id="flow11.3" depart="80.00" departLane="e_t_0" departPos="5.10" departSpeed="0.00" departDelay="2.62" arrival="106.00" arrivalLane="t_s_0" arrivalPos="136.25" arrivalSpeed="14.94" duration="26.00" routeLength="279.21" waitingTime="0.00" waitingCount="0" stopTime="0.00" timeLoss="6.50" rerouteNo="0" devices="tripinfo_flow11.3" vType="CarA" speedFactor="1.10" vaporized=""/>
    <tripinfo id="flow10.1" depart="31.00" departLane="e_t_0" departPos="5.10" departSpeed="0.00" departDelay="0.19" arrival="107.00" arrivalLane="t_w_0" arrivalPos="136.25" arrivalSpeed="13.72" duration="76.00" routeLength="294.90" waitingTime="45.00" waitingCount="1" stopTime="0.00" timeLoss="55.91" rerouteNo="0" devices="tripinfo_flow10.1" vType="CarA" speedFactor="1.06" vaporized=""/>
    <tripinfo id="flow07.1" depart="39.00" departLane="w_t_0" departPos="5.10" departSpeed="0.00" departDelay="0.97" arrival="107.00" arrivalLane="t_e_0" arrivalPos="136.25" arrivalSpeed="11.39" duration="68.00" routeLength="294.90" waitingTime="35.00" waitingCount="1" stopTime="0.00" timeLoss="43.64" rerouteNo="0" devices="tripinfo_flow07.1" vType="CarA" speedFactor="0.89" vaporized=""/>
    <tripinfo id="flow09.2" depart="71.00" departLane="w_t_0" departPos="5.10" departSpeed="0.00" departDelay="0.50" arrival="107.00" arrivalLane="t_n_0" arrivalPos="136.25" arrivalSpeed="13.89" duration="36.00" routeLength="279.21" waitingTime="4.00" waitingCount="1" stopTime="0.00" timeLoss="16.83" rerouteNo="0" devices="tripinfo_flow09.2" vType="CarA" speedFactor="1.09" vaporized=""/>
    <tripinfo id="flow07.2" depart="48.00" departLane="w_t_0" departPos="5.10" departSpeed="0.00" departDelay="0.52" arrival="108.00" arrivalLane="t_e_0" arrivalPos="136.25" arrivalSpeed="13.67" duration="60.00" routeLength="294.90" waitingTime="28.00" waitingCount="1" stopTime="0.00" timeLoss="39.31" rerouteNo="0" devices="tripinfo_flow07.2" vType="CarA" speedFactor="1.03" vaporized=""/>
    <tripinfo id="flow07.3" depart="51.00" departLane="w_t_0" departPos="5.10" departSpeed="0.00" departDelay="2.86" arrival="110.00" arrivalLane="t_e_0" arrivalPos="136.25" arrivalSpeed="13.88" duration="59.00" routeLength="294.90" waitingTime="26.00" waitingCount="1" stopTime="0.00" timeLoss="39.24" rerouteNo="0" devices="tripinfo_flow07.3" vType="CarA" speedFactor="1.09" vaporized=""/>
    <tripinfo id="flow09.3" depart="74.00" departLane="w_t_0" departPos="5.10" departSpeed="0.00" departDelay="2.21" arrival="111.00" arrivalLane="t_n_0" arrivalPos="136.25" arrivalSpeed="11.63" duration="37.00" routeLength="279.21" waitingTime="3.00" waitingCount="1" stopTime="0.00" timeLoss="13.89" rerouteNo="0" devices="tripinfo_flow09.3" vType="CarA" speedFactor="0.91" vaporized=""/>
    <tripinfo id="flow10.2" depart="52.00" departLane="e_t_0" departPos="5.10" departSpeed="0.00" departDelay="0.66" arrival="112.00" arrivalLane="t_w_0" arrivalPos="136.25" arrivalSpeed="10.83" duration="60.00" routeLength="294.90" waitingTime="25.00" waitingCount="1" stopTime="0.00" timeLoss="34.51" rerouteNo="0" devices="tripinfo_flow10.2" vType="CarA" speedFactor="0.86" vaporized=""/>
    <tripinfo id="flow11.4" depart="85.00" departLane="e_t_0" departPos="5.10" departSpeed="0.00" departDelay="3.65" arrival="112.00" arrivalLane="t_s_0" arrivalPos="136.25" arrivalSpeed="13.92" duration="27.00" routeLength="279.21" waitingTime="0.00" waitingCount="0" stopTime="0.00" timeLoss="6.49" rerouteNo="0" devices="tripinfo_flow11.4" vType="CarA" speedFactor="1.03" vaporized=""/>
    <tripinfo id="flow10.3" depart="54.00" departLane="e_t_0" departPos="5.10" departSpeed="0.00" departDelay="2.15" arrival="113.00" arrivalLane="t_w_0" arrivalPos="136.25" arrivalSpeed="12.65" duration="59.00" routeLength="294.90" waitingTime="23.00" waitingCount="1" stopTime="0.00" timeLoss="39.30" rerouteNo="0" devices="tripinfo_flow10.3" vType="CarA" speedFactor="1.09" vaporized=""/>
    <tripinfo id="flow07.4" depart="64.00" departLane="w_t_0" departPos="5.10" departSpeed="0.00" departDelay="0.76" arrival="113.00" arrivalLane="t_e_0" arrivalPos="136.25" arrivalSpeed="12.87" duration="49.00" routeLength="294.90" waitingTime="14.00" waitingCount="1" stopTime="0.00" timeLoss="25.64" rerouteNo="0" devices="tripinfo_flow07.4" vType="CarA" speedFactor="0.94" vaporized=""/>
    <tripinfo id="flow07.5" depart="67.00" departLane="w_t_0" departPos="5.10" departSpeed="0.00" departDelay="1.22" arrival="114.00" arrivalLane="t_e_0" arrivalPos="136.25" arrivalSpeed="13.71" duration="47.00" routeLength="294.90" waitingTime="14.00" waitingCount="1" stopTime="0.00" timeLoss="28.26" rerouteNo="0" devices="tripinfo_flow07.5" vType="CarA" speedFactor="1.14" vaporized=""/>
    <tripinfo id="flow10.4" depart="65.00" departLane="e_t_0" departPos="5.10" departSpeed="0.00" departDelay="0.63" arrival="115.00" arrivalLane="t_w_0" arrivalPos="136.25" arrivalSpeed="11.86" duration="50.00" routeLength="294.90" waitingTime="14.00" waitingCount="1" stopTime="0.00" timeLoss="26.61" rerouteNo="0" devices="tripinfo_flow10.4" vType="CarA" speedFactor="0.92" vaporized=""/>
    <tripinfo id="flow11.5" depart="88.00" departLane="e_t_0" departPos="5.10" departSpeed="0.00" departDelay="4.04" arrival="115.00" arrivalLane="t_s_0" arrivalPos="136.25" arrivalSpeed="12.57" duration="27.00" routeLength="279.21" waitingTime="0.00" waitingCount="0" stopTime="0.00" timeLoss="5.54" rerouteNo="0" devices="tripinfo_flow11.5" vType="CarA" speedFactor="0.98" vaporized=""/>
    <tripinfo id="flow07.6" depart="79.00" departLane="w_t_0" departPos="5.10" departSpeed="0.00" departDelay="2.82" arrival="116.00" arrivalLane="t_e_0" arrivalPos="136.25" arrivalSpeed="12.26" duration="37.00" routeLength="294.90" waitingTime="3.00" waitingCount="1" stopTime="0.00" timeLoss="14.18" rerouteNo="0" devices="tripinfo_flow07.6" vType="CarA" speedFactor="0.93" vaporized=""/>
    <tripinfo id="flow10.5" depart="75.00" departLane="e_t_0" departPos="5.10" departSpeed="0.00" departDelay="0.18" arrival="117.00" arrivalLane="t_w_0" arrivalPos="136.25" arrivalSpeed="13.82" duration="42.00" routeLength="294.90" waitingTime="6.00" waitingCount="1" stopTime="0.00" timeLoss="21.38" rerouteNo="0" devices="tripinfo_flow10.5" vType="CarA" speedFactor="1.07" vaporized=""/>
    <tripinfo id="flow11.6" depart="91.00" departLane="e_t_0" departPos="5.10" departSpeed="0.00" departDelay="6.53" arrival="117.00" arrivalLane="t_s_0" arrivalPos="136.25" arrivalSpeed="15.70" duration="26.00" routeLength="279.21" waitingTime="0.00" waitingCount="0" stopTime="0.00" timeLoss="7.90" rerouteNo="0" devices="tripinfo_flow11.6" vType="CarA" speedFactor="1.17" vaporized=""/>
    <tripinfo id="flow07.7" depart="82.00" departLane="w_t_0" departPos="5.10" departSpeed="0.00" departDelay="5.75" arrival="118.00" arrivalLane="t_e_0" arrivalPos="136.25" arrivalSpeed="13.93" duration="36.00" routeLength="294.90" waitingTime="2.00" waitingCount="1" stopTime="0.00" timeLoss="16.00" rerouteNo="0" devices="tripinfo_flow07.7" vType="CarA" speedFactor="1.09" vaporized=""/>
    <tripinfo id="flow12.3" depart="77.00" departLane="e_t_0" departPos="5.10" departSpeed="0.00" departDelay="2.75" arrival="124.00" arrivalLane="t_n_0" arrivalPos="136.25" arrivalSpeed="13.97" duration="47.00" routeLength="293.40" waitingTime="15.00" waitingCount="1" stopTime="0.00" timeLoss="26.83" rerouteNo="0" devices="tripinfo_flow12.3" vType="CarA" speedFactor="1.07" vaporized=""/>
    <tripinfo id="flow08.4" depart="77.00" departLane="w_t_0" departPos="5.10" departSpeed="0.00" departDelay="4.54" arrival="125.00" arrivalLane="t_s_0" arrivalPos="136.25" arrivalSpeed="11.85" duration="48.00" routeLength="293.40" waitingTime="15.00" waitingCount="1" stopTime="0.00" timeLoss="24.66" rerouteNo="0" devices="tripinfo_flow08.4" vType="CarA" speedFactor="0.93" vaporized=""/>
    <tripinfo id="flow12.4" depart="79.00" departLane="e_t_0" departPos="5.10" departSpeed="0.00" departDelay="2.53" arrival="126.00" arrivalLane="t_n_0" arrivalPos="136.25" arrivalSpeed="14.08" duration="47.00" routeLength="293.40" waitingTime="15.00" waitingCount="1" stopTime="0.00" timeLoss="27.11" rerouteNo="0" devices="tripinfo_flow12.4" vType="CarA" speedFactor="1.10" vaporized=""/>
    <tripinfo id="flow08.5" depart="78.00" departLane="w_t_0" departPos="5.10" departSpeed="0.00" departDelay="5.36" arrival="127.00" arrivalLane="t_s_0" arrivalPos="136.25" arrivalSpeed="13.24" duration="49.00" routeLength="293.40" waitingTime="14.00" waitingCount="1" stopTime="0.00" timeLoss="27.49" rerouteNo="0" devices="tripinfo_flow08.5" vType="CarA" speedFactor="1.02" vaporized=""/>
    <tripinfo id="flow05.7" depart="107.00" departLane="s_t_0" departPos="5.10" departSpeed="0.00" departDelay="0.32" arrival="132.00" arrivalLane="t_w_0" arrivalPos="136.25" arrivalSpeed="13.96" duration="25.00" routeLength="279.21" waitingTime="0.00" waitingCount="0" stopTime="0.00" timeLoss="5.21" rerouteNo="0" devices="tripinfo_flow05.7" vType="CarA" speedFactor="1.07" vaporized=""/>
    <tripinfo id="flow04.2" depart="37.00" departLane="s_t_0" departPos="5.10" departSpeed="0.00" departDelay="0.08" arrival="135.00" arrivalLane="t_n_0" arrivalPos="136.25" arrivalSpeed="12.93" duration="98.00" routeLength="294.90" waitingTime="61.00" waitingCount="2" stopTime="0.00" timeLoss="75.42" rerouteNo="0" devices="tripinfo_flow04.2" vType="CarA" speedFactor="0.97" vaporized=""/>
    <tripinfo id="flow06.0" depart="30.00" departLane="s_t_0" departPos="5.10" departSpeed="0.00" departDelay="2.06" arrival="137.00" arrivalLane="t_e_0" arrivalPos="136.25" arrivalSpeed="11.68" duration="107.00" routeLength="293.40" waitingTime="72.00" waitingCount="1" stopTime="0.00" timeLoss="81.53" rerouteNo="0" devices="tripinfo_flow06.0" vType="CarA" speedFactor="0.86" vaporized=""/>
    <tripinfo id="flow04.3" depart="56.00" departLane="s_t_0" departPos="5.10" departSpeed="0.00" departDelay="0.70" arrival="137.00" arrivalLane="t_n_0" arrivalPos="136.25" arrivalSpeed="13.17" duration="81.00" routeLength="294.90" waitingTime="43.00" waitingCount="1" stopTime="0.00" timeLoss="58.70" rerouteNo="0" devices="tripinfo_flow04.3" vType="CarA" speedFactor="0.99" vaporized=""/>
    <tripinfo id="flow04.4" depart="72.00" departLane="s_t_0" departPos="5.10" departSpeed="0.00" departDelay="3.32" arrival="138.00" arrivalLane="t_n_0" arrivalPos="136.25" arrivalSpeed="14.71" duration="66.00" routeLength="294.90" waitingTime="34.00" waitingCount="1" stopTime="0.00" timeLoss="45.73" rerouteNo="0" devices="tripinfo_flow04.4" vType="CarA" speedFactor="1.06" vaporized=""/>
    <tripinfo id="flow06.1" depart="35.00" departLane="s_t_0" departPos="5.10" departSpeed="0.00" departDelay="2.17" arrival="139.00" arrivalLane="t_e_0" arrivalPos="136.25" arrivalSpeed="11.33" duration="104.00" routeLength="293.40" waitingTime="68.00" waitingCount="1" stopTime="0.00" timeLoss="77.87" rerouteNo="0" devices="tripinfo_flow06.1" vType="CarA" speedFactor="0.83" vaporized=""/>
    <tripinfo id="flow06.2" depart="49.00" departLane="s_t_0" departPos="5.10" departSpeed="0.00" departDelay="0.42" arrival="141.00" arrivalLane="t_e_0" arrivalPos="136.25" arrivalSpeed="12.40" duration="92.00" routeLength="293.40" waitingTime="57.00" waitingCount="1" stopTime="0.00" timeLoss="68.70" rerouteNo="0" devices="tripinfo_flow06.2" vType="CarA" speedFactor="0.94" vaporized=""/>
    <tripinfo id="flow06.3" depart="54.00" departLane="s_t_0" departPos="5.10" departSpeed="0.00" departDelay="0.95" arrival="143.00" arrivalLane="t_e_0" arrivalPos="136.25" arrivalSpeed="13.70" duration="89.00" routeLength="293.40" waitingTime="55.00" waitingCount="1" stopTime="0.00" timeLoss="67.30" rerouteNo="0" devices="tripinfo_flow06.3" vType="CarA" speedFactor="1.04" vaporized=""/>
    <tripinfo id="flow05.8" depart="113.00" departLane="s_t_0" departPos="5.10" departSpeed="0.00" departDelay="1.00" arrival="143.00" arrivalLane="t_w_0" arrivalPos="136.25" arrivalSpeed="11.26" duration="30.00" routeLength="279.21" waitingTime="0.00" waitingCount="0" stopTime="0.00" timeLoss="5.58" rerouteNo="0" devices="tripinfo_flow05.8" vType="CarA" speedFactor="0.88" vaporized=""/>
    <tripinfo id="flow04.5" depart="85.00" departLane="s_t_0" departPos="5.10" departSpeed="0.00" departDelay="0.90" arrival="144.00" arrivalLane="t_n_0" arrivalPos="136.25" arrivalSpeed="10.17" duration="59.00" routeLength="294.90" waitingTime="22.00" waitingCount="1" stopTime="0.00" timeLoss="30.77" rerouteNo="0" devices="tripinfo_flow04.5" vType="CarA" speedFactor="0.76" vaporized=""/>
    <tripinfo id="flow06.4" depart="75.00" departLane="s_t_0" departPos="5.10" departSpeed="0.00" departDelay="6.46" arrival="145.00" arrivalLane="t_e_0" arrivalPos="136.25" arrivalSpeed="11.81" duration="70.00" routeLength="293.40" waitingTime="34.00" waitingCount="1" stopTime="0.00" timeLoss="45.77" rerouteNo="0" devices="tripinfo_flow06.4" vType="CarA" speedFactor="0.92" vaporized=""/>
    <tripinfo id="flow04.6" depart="116.00" departLane="s_t_0" departPos="5.10" departSpeed="0.00" departDelay="2.60" arrival="146.00" arrivalLane="t_n_0" arrivalPos="136.25" arrivalSpeed="13.22" duration="30.00" routeLength="294.90" waitingTime="0.00" waitingCount="0" stopTime="0.00" timeLoss="8.38" rerouteNo="0" devices="tripinfo_flow04.6" vType="CarA" speedFactor="1.01" vaporized=""/>
    <tripinfo id="flow02.5" depart="57.00" departLane="n_t_0" departPos="5.10" departSpeed="0.00" departDelay="4.33" arrival="150.00" arrivalLane="t_w_0" arrivalPos="136.25" arrivalSpeed="15.12" duration="93.00" routeLength="293.40" waitingTime="63.00" waitingCount="1" stopTime="0.00" timeLoss="72.91" rerouteNo="0" devices="tripinfo_flow02.5" vType="CarA" speedFactor="1.09" vaporized=""/>
    <tripinfo id="flow09.4" depart="96.00" departLane="w_t_0" departPos="5.10" departSpeed="0.00" departDelay="2.75" arrival="150.00" arrivalLane="t_n_0" arrivalPos="136.25" arrivalSpeed="13.19" duration="54.00" routeLength="279.21" waitingTime="24.00" waitingCount="1" stopTime="0.00" timeLoss="33.28" rerouteNo="0" devices="tripinfo_flow09.4" vType="CarA" speedFactor="1.04" vaporized=""/>