<?xml version="1.0" encoding="UTF-8"?>

<!-- generated on 2024-06-07 17:46:07 by Eclipse SUMO libsumo Version 1.20.0
<configuration xmlns:xsi="http://www.w3.org/2001/XMLSchema-instance" xsi:noNamespaceSchemaLocation="http://sumo.dlr.de/xsd/libsumoConfiguration.xsd">

    <input>
        <net-file value="sumo_rl/nets/2way-single-intersection/single-intersection-2.net.xml"/>
        <route-files value="sumo_rl/nets/2way-single-intersection/single-intersection-vhvh.rou.xml"/>
    </input>

    <output>
        <tripinfo-output value="tripinfo.xml"/>
    </output>

    <processing>
        <time-to-teleport value="-1"/>
        <waiting-time-memory value="1000"/>
        <max-depart-delay value="-1"/>
    </processing>

    <random_number>
        <random value="true"/>
    </random_number>

</configuration>
-->

<tripinfos xmlns:xsi="http://www.w3.org/2001/XMLSchema-instance" xsi:noNamespaceSchemaLocation="http://sumo.dlr.de/xsd/tripinfo_file.xsd">
    <tripinfo id="flow05.0" depart="2.00" departLane="s_t_0" departPos="5.10" departSpeed="0.00" departDelay="0.66" arrival="29.00" arrivalLane="t_w_0" arrivalPos="136.40" arrivalSpeed="13.53" duration="27.00" routeLength="276.73" waitingTime="0.00" waitingCount="0" stopTime="0.00" timeLoss="5.31" rerouteNo="0" devices="tripinfo_flow05.0" vType="CarA" speedFactor="0.98" vaporized=""/>
    <tripinfo id="flow06.0" depart="8.00" departLane="s_t_0" departPos="5.10" departSpeed="0.00" departDelay="0.90" arrival="33.00" arrivalLane="t_e_2" arrivalPos="136.40" arrivalSpeed="13.59" duration="25.00" routeLength="292.21" waitingTime="0.00" waitingCount="0" stopTime="0.00" timeLoss="4.45" rerouteNo="0" devices="tripinfo_flow06.0" vType="CarA" speedFactor="1.06" vaporized=""/>
    <tripinfo id="flow11.0" depart="9.00" departLane="e_t_0" departPos="5.10" departSpeed="0.00" departDelay="0.69" arrival="34.00" arrivalLane="t_s_0" arrivalPos="136.40" arrivalSpeed="14.21" duration="25.00" routeLength="276.73" waitingTime="0.00" waitingCount="0" stopTime="0.00" timeLoss="6.43" rerouteNo="0" devices="tripinfo_flow11.0" vType="CarA" speedFactor="1.10" vaporized=""/>
    <tripinfo id="flow03.0" depart="13.00" departLane="n_t_0" departPos="5.10" departSpeed="0.00" departDelay="0.92" arrival="43.00" arrivalLane="t_e_0" arrivalPos="136.40" arrivalSpeed="14.14" duration="30.00" routeLength="276.73" waitingTime="2.00" waitingCount="1" stopTime="0.00" timeLoss="10.77" rerouteNo="0" devices="tripinfo_flow03.0" vType="CarA" speedFactor="1.07" vaporized=""/>
    <tripinfo id="flow04.0" depart="14.00" departLane="s_t_0" departPos="5.10" departSpeed="0.00" departDelay="0.74" arrival="43.00" arrivalLane="t_n_1" arrivalPos="136.40" arrivalSpeed="12.42" duration="29.00" routeLength="294.90" waitingTime="0.00" waitingCount="0" stopTime="0.00" timeLoss="4.39" rerouteNo="0" devices="tripinfo_flow04.0" vType="CarA" speedFactor="0.89" vaporized=""/>
    <tripinfo id="flow04.1" depart="17.00" departLane="s_t_0" departPos="5.10" departSpeed="0.00" departDelay="2.66" arrival="44.00" arrivalLane="t_n_1" arrivalPos="136.40" arrivalSpeed="13.37" duration="27.00" routeLength="294.90" waitingTime="0.00" waitingCount="0" stopTime="0.00" timeLoss="5.30" rerouteNo="0" devices="tripinfo_flow04.1" vType="CarA" speedFactor="0.99" vaporized=""/>
    <tripinfo id="flow05.1" depart="22.00" departLane="s_t_0" departPos="5.10" departSpeed="0.00" departDelay="0.74" arrival="52.00" arrivalLane="t_w_0" arrivalPos="136.40" arrivalSpeed="11.56" duration="30.00" routeLength="276.73" waitingTime="0.00" waitingCount="0" stopTime="0.00" timeLoss="5.28" rerouteNo="0" devices="tripinfo_flow05.1" vType="CarA" speedFactor="0.86" vaporized=""/>
    <tripinfo id="flow08.0" depart="23.00" departLane="w_t_0" departPos="5.10" departSpeed="0.00" departDelay="5.77" arrival="54.00" arrivalLane="t_s_2" arrivalPos="136.40" arrivalSpeed="13.73" duration="31.00" routeLength="292.21" waitingTime="1.00" waitingCount="1" stopTime="0.00" timeLoss="10.18" rerouteNo="0" devices="tripinfo_flow08.0" vType="CarA" speedFactor="1.07" vaporized=""/>
    <tripinfo id="flow05.2" depart="25.00" departLane="s_t_0" departPos="5.10" departSpeed="0.00" departDelay="1.85" arrival="55.00" arrivalLane="t_w_0" arrivalPos="136.40" arrivalSpeed="12.34" duration="30.00" routeLength="276.73" waitingTime="0.00" waitingCount="0" stopTime="0.00" timeLoss="6.38" rerouteNo="0" devices="tripinfo_flow05.2" vType="CarA" speedFactor="0.91" vaporized=""/>
    <tripinfo id="flow05.3" depart="28.00" departLane="s_t_0" departPos="5.10" departSpeed="0.00" departDelay="4.76" arrival="56.00" arrivalLane="t_w_0" arrivalPos="136.40" arrivalSpeed="13.65" duration="28.00" routeLength="276.73" waitingTime="0.00" waitingCount="0" stopTime="0.00" timeLoss="8.51" rerouteNo="0" devices="tripinfo_flow05.3" vType="CarA" speedFactor="1.08" vaporized=""/>
    <tripinfo id="flow05.4" depart="31.00" departLane="s_t_0" departPos="5.10" departSpeed="0.00" departDelay="6.89" arrival="59.00" arrivalLane="t_w_0" arrivalPos="136.40" arrivalSpeed="12.66" duration="28.00" routeLength="276.73" waitingTime="0.00" waitingCount="0" stopTime="0.00" timeLoss="5.81" rerouteNo="0" devices="tripinfo_flow05.4" vType="CarA" speedFactor="0.93" vaporized=""/>
    <tripinfo id="flow09.0" depart="5.00" departLane="w_t_0" departPos="5.10" departSpeed="0.00" departDelay="0.86" arrival="65.00" arrivalLane="t_n_0" arrivalPos="136.40" arrivalSpeed="15.53" duration="60.00" routeLength="276.73" waitingTime="31.00" waitingCount="1" stopTime="0.00" timeLoss="41.17" rerouteNo="0" devices="tripinfo_flow09.0" vType="CarA" speedFactor="1.13" vaporized=""/>
    <tripinfo id="flow10.0" depart="2.00" departLane="e_t_0" departPos="5.10" departSpeed="0.00" departDelay="0.22" arrival="67.00" arrivalLane="t_w_1" arrivalPos="136.40" arrivalSpeed="12.65" duration="65.00" routeLength="294.90" waitingTime="34.00" waitingCount="1" stopTime="0.00" timeLoss="42.94" rerouteNo="0" devices="tripinfo_flow10.0" vType="CarA" speedFactor="0.98" vaporized=""/>
    <tripinfo id="flow07.0" depart="11.00" departLane="w_t_0" departPos="5.10" departSpeed="0.00" departDelay="5.83" arrival="67.00" arrivalLane="t_e_1" arrivalPos="136.40" arrivalSpeed="13.18" duration="56.00" routeLength="294.90" waitingTime="25.00" waitingCount="1" stopTime="0.00" timeLoss="33.50" rerouteNo="0" devices="tripinfo_flow07.0" vType="CarA" speedFactor="0.96" vaporized=""/>
    <tripinfo id="flow09.1" depart="8.00" departLane="w_t_0" departPos="5.10" departSpeed="0.00" departDelay="3.05" arrival="68.00" arrivalLane="t_n_0" arrivalPos="136.40" arrivalSpeed="13.42" duration="60.00" routeLength="276.73" waitingTime="28.00" waitingCount="1" stopTime="0.00" timeLoss="39.43" rerouteNo="0" devices="tripinfo_flow09.1" vType="CarA" speedFactor="1.04" vaporized=""/>
    <tripinfo id="flow10.1" depart="25.00" departLane="e_t_0" departPos="5.10" departSpeed="0.00" departDelay="0.63" arrival="69.00" arrivalLane="t_w_1" arrivalPos="136.40" arrivalSpeed="12.47" duration="44.00" routeLength="294.90" waitingTime="13.00" waitingCount="1" stopTime="0.00" timeLoss="21.55" rerouteNo="0" devices="tripinfo_flow10.1" vType="CarA" speedFactor="0.97" vaporized=""/>
    <tripinfo id="flow07.1" depart="31.00" departLane="w_t_0" departPos="5.10" departSpeed="0.00" departDelay="2.37" arrival="69.00" arrivalLane="t_e_1" arrivalPos="136.40" arrivalSpeed="13.93" duration="38.00" routeLength="294.90" waitingTime="6.00" waitingCount="1" stopTime="0.00" timeLoss="16.35" rerouteNo="0" devices="tripinfo_flow07.1" vType="CarA" speedFactor="1.00" vaporized=""/>
    <tripinfo id="flow05.5" depart="46.00" departLane="s_t_0" departPos="5.10" departSpeed="0.00" departDelay="1.95" arrival="75.00" arrivalLane="t_w_0" arrivalPos="136.40" arrivalSpeed="14.75" duration="29.00" routeLength="276.73" waitingTime="1.00" waitingCount="1" stopTime="0.00" timeLoss="10.03" rerouteNo="0" devices="tripinfo_flow05.5" vType="CarA" speedFactor="1.11" vaporized=""/>
    <tripinfo id="flow01.0" depart="23.00" departLane="n_t_0" departPos="5.10" departSpeed="0.00" departDelay="0.76" arrival="77.00" arrivalLane="t_s_1" arrivalPos="136.40" arrivalSpeed="12.46" duration="54.00" routeLength="294.90" waitingTime="24.00" waitingCount="1" stopTime="0.00" timeLoss="31.80" rerouteNo="0" devices="tripinfo_flow01.0" vType="CarA" speedFactor="0.99" vaporized=""/>
    <tripinfo id="flow04.2" depart="34.00" departLane="s_t_0" departPos="5.10" departSpeed="0.00" departDelay="6.92" arrival="77.00" arrivalLane="t_n_1" arrivalPos="136.40" arrivalSpeed="13.41" duration="43.00" routeLength="294.90" waitingTime="12.00" waitingCount="1" stopTime="0.00" timeLoss="20.78" rerouteNo="0" devices="tripinfo_flow04.2" vType="CarA" speedFactor="0.98" vaporized=""/>
    <tripinfo id="flow04.3" depart="39.00" departLane="s_t_0" departPos="5.10" departSpeed="0.00" departDelay="0.09" arrival="79.00" arrivalLane="t_n_1" arrivalPos="136.40" arrivalSpeed="14.31" duration="40.00" routeLength="294.90" waitingTime="8.00" waitingCount="1" stopTime="0.00" timeLoss="18.77" rerouteNo="0" devices="tripinfo_flow04.3" vType="CarA" speedFactor="1.04" vaporized=""/>
    <tripinfo id="flow01.1" depart="36.00" departLane="n_t_0" departPos="5.10" departSpeed="0.00" departDelay="1.76" arrival="80.00" arrivalLane="t_s_1" arrivalPos="136.40" arrivalSpeed="12.14" duration="44.00" routeLength="294.90" waitingTime="11.00" waitingCount="1" stopTime="0.00" timeLoss="19.73" rerouteNo="0" devices="tripinfo_flow01.1" vType="CarA" speedFactor="0.90" vaporized=""/>
    <tripinfo id="flow05.6" depart="51.00" departLane="s_t_0" departPos="5.10" departSpeed="0.00" departDelay="1.19" arrival="80.00" arrivalLane="t_w_0" arrivalPos="136.40" arrivalSpeed="11.98" duration="29.00" routeLength="276.73" waitingTime="0.00" waitingCount="0" stopTime="0.00" timeLoss="5.71" rerouteNo="0" devices="tripinfo_flow05.6" vType="CarA" speedFactor="0.92" vaporized=""/>
    <tripinfo id="flow01.2" depart="39.00" departLane="n_t_0" departPos="5.10" departSpeed="0.00" departDelay="1.32" arrival="81.00" arrivalLane="t_s_1" arrivalPos="136.40" arrivalSpeed="14.32" duration="42.00" routeLength="294.90" waitingTime="11.00" waitingCount="1" stopTime="0.00" timeLoss="21.70" rerouteNo="0" devices="tripinfo_flow01.2" vType="CarA" speedFactor="1.05" vaporized=""/>
    <tripinfo id="flow01.3" depart="42.00" departLane="n_t_0" departPos="5.10" departSpeed="0.00" departDelay="3.28" arrival="83.00" arrivalLane="t_s_1" arrivalPos="136.40" arrivalSpeed="12.23" duration="41.00" routeLength="294.90" waitingTime="7.00" waitingCount="1" stopTime="0.00" timeLoss="17.57" rerouteNo="0" devices="tripinfo_flow01.3" vType="CarA" speedFactor="0.91" vaporized=""/>
    <tripinfo id="flow02.0" depart="4.00" departLane="n_t_0" departPos="5.10" departSpeed="0.00" departDelay="0.73" arrival="86.00" arrivalLane="t_w_2" arrivalPos="136.40" arrivalSpeed="14.74" duration="82.00" routeLength="292.21" waitingTime="52.00" waitingCount="1" stopTime="0.00" timeLoss="60.98" rerouteNo="0" devices="tripinfo_flow02.0" vType="CarA" speedFactor="1.06" vaporized=""/>
    <tripinfo id="flow09.2" depart="14.00" departLane="w_t_0" departPos="5.10" departSpeed="0.00" departDelay="8.21" arrival="86.00" arrivalLane="t_n_0" arrivalPos="136.40" arrivalSpeed="13.54" duration="72.00" routeLength="276.73" waitingTime="37.00" waitingCount="2" stopTime="0.00" timeLoss="51.23" rerouteNo="0" devices="tripinfo_flow09.2" vType="CarA" speedFactor="1.00" vaporized=""/>
    <tripinfo id="flow09.3" depart="17.00" departLane="w_t_0" departPos="5.10" departSpeed="0.00" departDelay="7.29" arrival="89.00" arrivalLane="t_n_0" arrivalPos="136.40" arrivalSpeed="13.47" duration="72.00" routeLength="276.73" waitingTime="34.00" waitingCount="2" stopTime="0.00" timeLoss="50.18" rerouteNo="0" devices="tripinfo_flow09.3" vType="CarA" speedFactor="0.98" vaporized=""/>
    <tripinfo id="flow02.1" depart="16.00" departLane="n_t_0" departPos="5.10" departSpeed="0.00" departDelay="1.86" arrival="90.00" arrivalLane="t_w_2" arrivalPos="136.40" arrivalSpeed="12.44" duration="74.00" routeLength="292.21" waitingTime="40.00" waitingCount="1" stopTime="0.00" timeLoss="49.51" rerouteNo="0" devices="tripinfo_flow02.1" vType="CarA" speedFactor="0.91" vaporized=""/>
    <tripinfo id="flow01.4" depart="64.00" departLane="n_t_0" departPos="5.10" departSpeed="0.00" departDelay="0.18" arrival="91.00" arrivalLane="t_s_1" arrivalPos="136.40" arrivalSpeed="12.16" duration="27.00" routeLength="294.90" waitingTime="0.00" waitingCount="0" stopTime="0.00" timeLoss="3.41" rerouteNo="0" devices="tripinfo_flow01.4" vType="CarA" speedFactor="0.90" vaporized=""/>
    <tripinfo id="flow02.2" depart="34.00" departLane="n_t_0" departPos="5.10" departSpeed="0.00" departDelay="0.55" arrival="92.00" arrivalLane="t_w_2" arrivalPos="136.40" arrivalSpeed="11.34" duration="58.00" routeLength="292.21" waitingTime="25.00" waitingCount="1" stopTime="0.00" timeLoss="34.15" rerouteNo="0" devices="tripinfo_flow02.2" vType="CarA" speedFactor="0.91" vaporized=""/>
    <tripinfo id="flow09.4" depart="20.00" departLane="w_t_0" departPos="5.10" departSpeed="0.00" departDelay="6.41" arrival="94.00" arrivalLane="t_n_0" arrivalPos="136.40" arrivalSpeed="10.15" duration="74.00" routeLength="276.73" waitingTime="31.00" waitingCount="2" stopTime="0.00" timeLoss="48.74" rerouteNo="0" devices="tripinfo_flow09.4" vType="CarA" speedFactor="0.82" vaporized=""/>
    <tripinfo id="flow09.5" depart="25.00" departLane="w_t_0" departPos="5.10" departSpeed="0.00" departDelay="7.49" arrival="96.00" arrivalLane="t_n_0" arrivalPos="136.40" arrivalSpeed="13.13" duration="71.00" routeLength="276.73" waitingTime="29.00" waitingCount="2" stopTime="0.00" timeLoss="49.22" rerouteNo="0" devices="tripinfo_flow09.5" vType="CarA" speedFactor="0.96" vaporized=""/>
    <tripinfo id="flow05.7" depart="59.00" departLane="s_t_0" departPos="5.10" departSpeed="0.00" departDelay="1.43" arrival="97.00" arrivalLane="t_w_0" arrivalPos="136.40" arrivalSpeed="13.85" duration="38.00" routeLength="276.73" waitingTime="9.00" waitingCount="1" stopTime="0.00" timeLoss="17.48" rerouteNo="0" devices="tripinfo_flow05.7" vType="CarA" speedFactor="1.03" vaporized=""/>
    <tripinfo id="flow09.6" depart="28.00" departLane="w_t_0" departPos="5.10" departSpeed="0.00" departDelay="10.46" arrival="98.00" arrivalLane="t_n_0" arrivalPos="136.40" arrivalSpeed="11.62" duration="70.00" routeLength="276.73" waitingTime="24.00" waitingCount="2" stopTime="0.00" timeLoss="46.66" rerouteNo="0" devices="tripinfo_flow09.6" vType="CarA" speedFactor="0.90" vaporized=""/>
    <tripinfo id="flow07.2" depart="35.00" departLane="w_t_0" departPos="5.10" departSpeed="0.00" departDelay="0.38" arrival="100.00" arrivalLane="t_e_1" arrivalPos="136.40" arrivalSpeed="12.11" duration="65.00" routeLength="294.90" waitingTime="28.00" waitingCount="2" stopTime="0.00" timeLoss="41.66" rerouteNo="0" devices="tripinfo_flow07.2" vType="CarA" speedFactor="0.94" vaporized=""/>
    <tripinfo id="flow08.1" depart="60.00" departLane="w_t_0" departPos="5.10" departSpeed="0.00" departDelay="1.03" arrival="100.00" arrivalLane="t_s_2" arrivalPos="136.40" arrivalSpeed="11.49" duration="40.00" routeLength="292.21" waitingTime="6.00" waitingCount="1" stopTime="0.00" timeLoss="15.53" rerouteNo="0" devices="tripinfo_flow08.1" vType="CarA" speedFactor="0.91" vaporized=""/>
    <tripinfo id="flow07.3" depart="57.00" departLane="w_t_0" departPos="5.10" departSpeed="0.00" departDelay="0.40" arrival="101.00" arrivalLane="t_e_1" arrivalPos="136.40" arrivalSpeed="13.84" duration="44.00" routeLength="294.90" waitingTime="11.00" waitingCount="1" stopTime="0.00" timeLoss="22.81" rerouteNo="0" devices="tripinfo_flow07.3" vType="CarA" speedFactor="1.01" vaporized=""/>
    <tripinfo id="flow08.2" depart="66.00" departLane="w_t_0" departPos="5.10" departSpeed="0.00" departDelay="0.99" arrival="101.00" arrivalLane="t_s_2" arrivalPos="136.40" arrivalSpeed="12.01" duration="35.00" routeLength="292.21" waitingTime="4.00" waitingCount="1" stopTime="0.00" timeLoss="12.32" rerouteNo="0" devices="tripinfo_flow08.2" vType="CarA" speedFactor="0.96" vaporized=""/>
    <tripinfo id="flow05.8" depart="67.00" departLane="s_t_0" departPos="5.10" departSpeed="0.00" departDelay="0.64" arrival="101.00" arrivalLane="t_w_0" arrivalPos="136.40" arrivalSpeed="12.28" duration="34.00" routeLength="276.73" waitingTime="2.00" waitingCount="1" stopTime="0.00" timeLoss="11.14" rerouteNo="0" devices="tripinfo_flow05.8" vType="CarA" speedFactor="0.92" vaporized=""/>
    <tripinfo id="flow09.7" depart="50.00" departLane="w_t_0" departPos="5.10" departSpeed="0.00" departDelay="0.08" arrival="102.00" arrivalLane="t_n_0" arrivalPos="136.40" arrivalSpeed="11.18" duration="52.00" routeLength="276.73" waitingTime="8.00" waitingCount="1" stopTime="0.00" timeLoss="27.32" rerouteNo="0" devices="tripinfo_flow09.7" vType="CarA" speedFactor="0.87" vaporized=""/>
    <tripinfo id="flow04.4" depart="43.00" departLane="s_t_0" departPos="5.10" departSpeed="0.00" departDelay="0.94" arrival="108.00" arrivalLane="t_n_1" arrivalPos="136.40" arrivalSpeed="16.38" duration="65.00" routeLength="294.90" waitingTime="31.00" waitingCount="2" stopTime="0.00" timeLoss="46.10" rerouteNo="0" devices="tripinfo_flow04.4" vType="CarA" speedFactor="1.18" vaporized=""/>
    <tripinfo id="flow06.1" depart="37.00" departLane="s_t_0" departPos="5.10" departSpeed="0.00" departDelay="2.85" arrival="109.00" arrivalLane="t_e_2" arrivalPos="136.40" arrivalSpeed="12.87" duration="72.00" routeLength="292.21" waitingTime="42.00" waitingCount="1" stopTime="0.00" timeLoss="49.14" rerouteNo="0" devices="tripinfo_flow06.1" vType="CarA" speedFactor="0.97" vaporized=""/>
    <tripinfo id="flow06.2" depart="49.00" departLane="s_t_0" departPos="5.10" departSpeed="0.00" departDelay="1.73" arrival="110.00" arrivalLane="t_e_2" arrivalPos="136.40" arrivalSpeed="15.61" duration="61.00" routeLength="292.21" waitingTime="31.00" waitingCount="1" stopTime="0.00" timeLoss="42.60" rerouteNo="0" devices="tripinfo_flow06.2" vType="CarA" speedFactor="1.18" vaporized=""/>
    <tripinfo id="flow04.5" depart="56.00" departLane="s_t_0" departPos="5.10" departSpeed="0.00" departDelay="0.62" arrival="111.00" arrivalLane="t_n_1" arrivalPos="136.40" arrivalSpeed="13.49" duration="55.00" routeLength="294.90" waitingTime="22.00" waitingCount="1" stopTime="0.00" timeLoss="32.81" rerouteNo="0" devices="tripinfo_flow04.5" vType="CarA" speedFactor="0.98" vaporized=""/>
    <tripinfo id="flow04.6" depart="71.00" departLane="s_t_0" departPos="5.10" departSpeed="0.00" departDelay="0.71" arrival="113.00" arrivalLane="t_n_1" arrivalPos="136.40" arrivalSpeed="13.24" duration="42.00" routeLength="294.90" waitingTime="10.00" waitingCount="1" stopTime="0.00" timeLoss="19.61" rerouteNo="0" devices="tripinfo_flow04.6" vType="CarA" speedFactor="0.96" vaporized=""/>
    <tripinfo id="flow06.3" depart="73.00" departLane="s_t_0" departPos="5.10" departSpeed="0.00" departDelay="2.68" arrival="114.00" arrivalLane="t_e_2" arrivalPos="136.40" arrivalSpeed="11.70" duration="41.00" routeLength="292.21" waitingTime="9.00" waitingCount="1" stopTime="0.00" timeLoss="16.60" rerouteNo="0" devices="tripinfo_flow06.3" vType="CarA" speedFactor="0.91" vaporized=""/>
    <tripinfo id="flow06.4" depart="75.00" departLane="s_t_0" departPos="5.10" departSpeed="0.00" departDelay="4.68" arrival="115.00" arrivalLane="t_e_2" arrivalPos="136.40" arrivalSpeed="14.05" duration="40.00" routeLength="292.21" waitingTime="7.00" waitingCount="1" stopTime="0.00" timeLoss="20.28" rerouteNo="0" devices="tripinfo_flow06.4" vType="CarA" speedFactor="1.10" vaporized=""/>
    <tripinfo id="flow04.7" depart="87.00" departLane="s_t_0" departPos="5.10" departSpeed="0.00" departDelay="0.28" arrival="116.00" arrivalLane="t_n_1" arrivalPos="136.40" arrivalSpeed="11.77" duration="29.00" routeLength="294.90" waitingTime="0.00" waitingCount="0" stopTime="0.00" timeLoss="4.96" rerouteNo="0" devices="tripinfo_flow04.7" vType="CarA" speedFactor="0.90" vaporized=""/>
    <tripinfo id="flow06.5" depart="77.00" departLane="s_t_0" departPos="5.10" departSpeed="0.00" departDelay="0.72" arrival="117.00" arrivalLane="t_e_2" arrivalPos="136.40" arrivalSpeed="15.21" duration="40.00" routeLength="292.21" waitingTime="5.00" waitingCount="1" stopTime="0.00" timeLoss="20.27" rerouteNo="0" devices="tripinfo_flow06.5" vType="CarA" speedFactor="1.12" vaporized=""/>
    <tripinfo id="flow06.6" depart="83.00" departLane="s_t_0" departPos="5.10" departSpeed="0.00" departDelay="0.90" arrival="119.00" arrivalLane="t_e_2" arrivalPos="136.40" arrivalSpeed="13.73" duration="36.00" routeLength="292.21" waitingTime="2.00" waitingCount="1" stopTime="0.00" timeLoss="14.23" rerouteNo="0" devices="tripinfo_flow06.6" vType="CarA" speedFactor="1.02" vaporized=""/>
    <tripinfo id="flow04.8" depart="96.00" departLane="s_t_0" departPos="5.10" departSpeed="0.00" departDelay="0.85" arrival="120.00" arrivalLane="t_n_1" arrivalPos="136.40" arrivalSpeed="14.57" duration="24.00" routeLength="294.90" waitingTime="0.00" waitingCount="0" stopTime="0.00" timeLoss="3.83" rerouteNo="0" devices="tripinfo_flow04.8" vType="CarA" speedFactor="1.09" vaporized=""/>
    <tripinfo id="flow05.9" depart="93.00" departLane="s_t_0" departPos="5.10" departSpeed="0.00" departDelay="0.45" arrival="122.00" arrivalLane="t_w_0" arrivalPos="136.40" arrivalSpeed="12.63" duration="29.00" routeLength="276.73" waitingTime="0.00" waitingCount="0" stopTime="0.00" timeLoss="6.39" rerouteNo="0" devices="tripinfo_flow05.9" vType="CarA" speedFactor="0.93" vaporized=""/>
    <tripinfo id="flow04.9" depart="98.00" departLane="s_t_0" departPos="5.10" departSpeed="0.00" departDelay="1.46" arrival="123.00" arrivalLane="t_n_1" arrivalPos="136.40" arrivalSpeed="13.72" duration="25.00" routeLength="294.90" waitingTime="0.00" waitingCount="0" stopTime="0.00" timeLoss="4.43" rerouteNo="0" devices="tripinfo_flow04.9" vType="CarA" speedFactor="1.08" vaporized=""/>
    <tripinfo id="flow03.1" depart="77.00" departLane="n_t_0" departPos="5.10" departSpeed="0.00" departDelay="0.03" arrival="124.00" arrivalLane="t_e_0" arrivalPos="136.40" arrivalSpeed="16.14" duration="47.00" routeLength="276.73" waitingTime="19.00" waitingCount="1" stopTime="0.00" timeLoss="29.10" rerouteNo="0" devices="tripinfo_flow03.1" vType="CarA" speedFactor="1.16" vaporized=""/>
    <tripinfo id="flow01.5" depart="95.00" departLane="n_t_0" departPos="5.10" departSpeed="0.00" departDelay="0.45" arrival="126.00" arrivalLane="t_s_1" arrivalPos="136.40" arrivalSpeed="14.94" duration="31.00" routeLength="294.90" waitingTime="0.00" waitingCount="0" stopTime="0.00" timeLoss="11.02" rerouteNo="0" devices="tripinfo_flow01.5" vType="CarA" speedFactor="1.10" vaporized=""/>
    <tripinfo id="flow01.6" depart="98.00" departLane="n_t_0" departPos="5.10" departSpeed="0.00" departDelay="2.94" arrival="129.00" arrivalLane="t_s_1" arrivalPos="136.40" arrivalSpeed="12.96" duration="31.00" routeLength="294.90" waitingTime="0.00" waitingCount="0" stopTime="0.00" timeLoss="7.92" rerouteNo="0" devices="tripinfo_flow01.6" vType="CarA" speedFactor="0.94" vaporized=""/>
    <tripinfo id="flow05.10" depart="105.00" departLane="s_t_0" departPos="5.10" departSpeed="0.00" departDelay="0.37" arrival="132.00" arrivalLane="t_w_0" arrivalPos="136.40" arrivalSpeed="13.49" duration="27.00" routeLength="276.73" waitingTime="0.00" waitingCount="0" stopTime="0.00" timeLoss="5.64" rerouteNo="0" devices="tripinfo_flow05.10" vType="CarA" speedFactor="0.98" vaporized=""/>
    <tripinfo id="flow12.0" depart="81.00" departLane="e_t_0" departPos="5.10" departSpeed="0.00" departDelay="4.37" arrival="136.00" arrivalLane="t_n_2" arrivalPos="136.40" arrivalSpeed="12.88" duration="55.00" routeLength="292.21" waitingTime="24.00" waitingCount="1" stopTime="0.00" timeLoss="33.58" rerouteNo="0" devices="tripinfo_flow12.0" vType="CarA" speedFactor="1.01" vaporized=""/>
    <tripinfo id="flow08.3" depart="103.00" departLane="w_t_0" departPos="5.10" departSpeed="0.00" departDelay="3.20" arrival="139.00" arrivalLane="t_s_2" arrivalPos="136.40" arrivalSpeed="10.93" duration="36.00" routeLength="292.21" waitingTime="1.00" waitingCount="1" stopTime="0.00" timeLoss="9.31" rerouteNo="0" devices="tripinfo_flow08.3" vType="CarA" speedFactor="0.81" vaporized=""/>
    <tripinfo id="flow05.11" depart="113.00" departLane="s_t_0" departPos="5.10" departSpeed="0.00" departDelay="0.91" arrival="139.00" arrivalLane="t_w_0" arrivalPos="136.40" arrivalSpeed="14.73" duration="26.00" routeLength="276.73" waitingTime="0.00" waitingCount="0" stopTime="0.00" timeLoss="6.18" rerouteNo="0" devices="tripinfo_flow05.11" vType="CarA" speedFactor="1.07" vaporized=""/>
    <tripinfo id="flow08.4" depart="107.00" departLane="w_t_0" departPos="5.10" departSpeed="0.00" departDelay="2.22" arrival="141.00" arrivalLane="t_s_2" arrivalPos="136.40" arrivalSpeed="14.71" duration="34.00" routeLength="292.21" waitingTime="1.00" waitingCount="1" stopTime="0.00" timeLoss="13.19" rerouteNo="0" devices="tripinfo_flow08.4" vType="CarA" speedFactor="1.07" vaporized=""/>
    <tripinfo id="flow10.2" depart="38.00" departLane="e_t_0" departPos="5.10" departSpeed="0.00" departDelay="0.17" arrival="146.00" arrivalLane="t_w_1" arrivalPos="136.40" arrivalSpeed="14.01" duration="108.00" routeLength="294.90" waitingTime="75.00" waitingCount="2" stopTime="0.00" timeLoss="87.87" rerouteNo="0" devices="tripinfo_flow10.2" vType="CarA" speedFactor="1.07" vaporized=""/>
    <tripinfo id="flow11.1" depart="103.00" departLane="e_t_0" departPos="5.10" departSpeed="0.00" departDelay="1.45" arrival="146.00" arrivalLane="t_s_0" arrivalPos="136.40" arrivalSpeed="12.97" duration="43.00" routeLength="276.73" waitingTime="13.00" waitingCount="1" stopTime="0.00" timeLoss="20.85" rerouteNo="0" devices="tripinfo_flow11.1" vType="CarA" speedFactor="0.95" vaporized=""/>
    <tripinfo id="flow09.8" depart="53.00" departLane="w_t_0" departPos="5.10" departSpeed="0.00" departDelay="1.38" arrival="147.00" arrivalLane="t_n_0" arrivalPos="136.40" arrivalSpeed="11.24" duration="94.00" routeLength="276.73" waitingTime="47.00" waitingCount="2" stopTime="0.00" timeLoss="70.40" rerouteNo="0" devices="tripinfo_flow09.8" vType="CarA" speedFactor="0.89" vaporized=""/>
    <tripinfo id="flow07.4" depart="72.00" departLane="w_t_0" departPos="5.10" departSpeed="0.00" departDelay="0.41" arrival="147.00" arrivalLane="t_e_1" arrivalPos="136.40" arrivalSpeed="14.48" duration="75.00" routeLength="294.90" waitingTime="40.00" waitingCount="1" stopTime="0.00" timeLoss="54.03" rerouteNo="0" devices="tripinfo_flow07.4" vType="CarA" speedFactor="1.05" vaporized=""/>
    <tripinfo id="flow07.5" depart="83.00" departLane="w_t_0" departPos="5.10" departSpeed="0.00" departDelay="0.91" arrival="148.00" arrivalLane="t_e_1" arrivalPos="136.40" arrivalSpeed="15.58" duration="65.00" routeLength="294.90" waitingTime="35.00" waitingCount="1" stopTime="0.00" timeLoss="45.94" rerouteNo="0" devices="tripinfo_flow07.5" vType="CarA" speedFactor="1.13" vaporized=""/>
    <tripinfo id="flow10.3" depart="50.00" departLane="e_t_0" departPos="5.10" departSpeed="0.00" departDelay="0.38" arrival="150.00" arrivalLane="t_w_1" arrivalPos="136.40" arrivalSpeed="11.63" duration="100.00" routeLength="294.90" waitingTime="66.00" waitingCount="1" stopTime="0.00" timeLoss="74.46" rerouteNo="0" devices="tripinfo_flow10.3" vType="CarA" speedFactor="0.85" vaporized=""/>
    <tripinfo id="flow09.9" depart="97.00" departLane="w_t_0" departPos="5.10" departSpeed="0.00" departDelay="0.47" arrival="150.00" arrivalLane="t_n_0" arrivalPos="136.40" arrivalSpeed="11.52" duration="53.00" routeLength="276.73" waitingTime="21.00" waitingCount="1" stopTime="0.00" timeLoss="29.46" rerouteNo="0" devices="tripinfo_flow09.9" vType="CarA" speedFactor="0.90" vaporized=""/>
    <tripinfo id="flow07.6" depart="100.00" departLane="w_t_0" departPos="5.10" departSpeed="0.00" departDelay="1.92" arrival="150.00" arrivalLane="t_e_1" arrivalPos="136.40" arrivalSpeed="15.55" duration="50.00" routeLength="294.90" waitingTime="20.00" waitingCount="1" stopTime="0.00" timeLoss="30.68" rerouteNo="0" devices="tripinfo_flow07.6" vType="CarA" speedFactor="1.13" vaporized=""/>
    <tripinfo id="flow11.2" depart="110.00" departLane="e_t_0" departPos="5.10" departSpeed="0.00" departDelay="0.23" arrival="150.00" arrivalLane="t_s_0" arrivalPos="136.40" arrivalSpeed="11.68" duration="40.00" routeLength="276.73" waitingTime="7.00" waitingCount="1" stopTime="0.00" timeLoss="15.86" rerouteNo="0" devices="tripinfo_flow11.2" vType="CarA" speedFactor="0.87" vaporized=""/>
    <tripinfo id="flow10.4" depart="75.00" departLane="e_t_0" departPos="5.10" departSpeed="0.00" departDelay="0.01" arrival="152.00" arrivalLane="t_w_1" arrivalPos="136.40" arrivalSpeed="14.01" duration="77.00" routeLength="294.90" waitingTime="45.00" waitingCount="1" stopTime="0.00" timeLoss="55.70" rerouteNo="0" devices="tripinfo_flow10.4" vType="CarA" speedFactor="1.04" vaporized=""/>
    <tripinfo id="flow10.5" depart="78.00" departLane="e_t_0" departPos="5.10" departSpeed="0.00" departDelay="1.51" arrival="153.00" arrivalLane="t_w_1" arrivalPos="136.40" arrivalSpeed="15.12" duration="75.00" routeLength="294.90" waitingTime="43.00" waitingCount="1" stopTime="0.00" timeLoss="56.30" rerouteNo="0" devices="tripinfo_flow10.5" vType="CarA" speedFactor="1.15" vaporized=""/>
    <tripinfo id="flow07.7" depart="105.00" departLane="w_t_0" departPos="5.10" departSpeed="0.00" departDelay="1.03" arrival="154.00" arrivalLane="t_e_1" arrivalPos="136.40" arrivalSpeed="12.53" duration="49.00" routeLength="294.90" waitingTime="15.00" waitingCount="1" stopTime="0.00" timeLoss="24.78" rerouteNo="0" devices="tripinfo_flow07.7" vType="CarA" speedFactor="0.90" vaporized=""/>