<?xml version="1.0" encoding="UTF-8"?>

<!-- generated on 2024-06-10 15:57:31 by Eclipse SUMO libsumo Version 1.20.0
<configuration xmlns:xsi="http://www.w3.org/2001/XMLSchema-instance" xsi:noNamespaceSchemaLocation="http://sumo.dlr.de/xsd/libsumoConfiguration.xsd">

    <input>
        <net-file value="sumo_rl/nets/2way-single-intersection/single-intersection-2.net.xml"/>
        <route-files value="sumo_rl/nets/2way-single-intersection/single-intersection-vhvh.rou.xml"/>
    </input>

    <output>
        <tripinfo-output value="outputs/l0.0001-normal-untrained\tripinfos.xml"/>
    </output>

    <processing>
        <time-to-teleport value="-1"/>
        <waiting-time-memory value="1000"/>
        <max-depart-delay value="-1"/>
    </processing>

    <random_number>
        <random value="true"/>
    </random_number>

</configuration>
-->

<tripinfos xmlns:xsi="http://www.w3.org/2001/XMLSchema-instance" xsi:noNamespaceSchemaLocation="http://sumo.dlr.de/xsd/tripinfo_file.xsd">
    <tripinfo id="flow05.0" depart="4.00" departLane="s_t_0" departPos="5.10" departSpeed="0.00" departDelay="0.22" arrival="29.00" arrivalLane="t_w_0" arrivalPos="136.25" arrivalSpeed="14.42" duration="25.00" routeLength="279.21" waitingTime="0.00" waitingCount="0" stopTime="0.00" timeLoss="5.79" rerouteNo="0" devices="tripinfo_flow05.0" vType="CarA" speedFactor="1.12" vaporized=""/>
    <tripinfo id="flow11.0" depart="6.00" departLane="e_t_0" departPos="5.10" departSpeed="0.00" departDelay="0.19" arrival="31.00" arrivalLane="t_s_0" arrivalPos="136.25" arrivalSpeed="15.18" duration="25.00" routeLength="279.21" waitingTime="0.00" waitingCount="0" stopTime="0.00" timeLoss="5.86" rerouteNo="0" devices="tripinfo_flow11.0" vType="CarA" speedFactor="1.13" vaporized=""/>
    <tripinfo id="flow11.1" depart="10.00" departLane="e_t_0" departPos="5.10" departSpeed="0.00" departDelay="0.56" arrival="39.00" arrivalLane="t_s_0" arrivalPos="136.25" arrivalSpeed="12.20" duration="29.00" routeLength="279.21" waitingTime="0.00" waitingCount="0" stopTime="0.00" timeLoss="5.64" rerouteNo="0" devices="tripinfo_flow11.1" vType="CarA" speedFactor="0.90" vaporized=""/>
    <tripinfo id="flow05.1" depart="11.00" departLane="s_t_0" departPos="5.10" departSpeed="0.00" departDelay="3.44" arrival="40.00" arrivalLane="t_w_0" arrivalPos="136.25" arrivalSpeed="11.81" duration="29.00" routeLength="279.21" waitingTime="0.00" waitingCount="0" stopTime="0.00" timeLoss="5.10" rerouteNo="0" devices="tripinfo_flow05.1" vType="CarA" speedFactor="0.88" vaporized=""/>
    <tripinfo id="flow12.0" depart="19.00" departLane="e_t_0" departPos="5.10" departSpeed="0.00" departDelay="0.18" arrival="42.00" arrivalLane="t_n_0" arrivalPos="136.25" arrivalSpeed="16.08" duration="23.00" routeLength="293.40" waitingTime="0.00" waitingCount="0" stopTime="0.00" timeLoss="4.41" rerouteNo="0" devices="tripinfo_flow12.0" vType="CarA" speedFactor="1.22" vaporized=""/>
    <tripinfo id="flow09.0" depart="7.00" departLane="w_t_0" departPos="5.10" departSpeed="0.00" departDelay="2.78" arrival="49.00" arrivalLane="t_n_0" arrivalPos="136.25" arrivalSpeed="15.10" duration="42.00" routeLength="279.21" waitingTime="13.00" waitingCount="1" stopTime="0.00" timeLoss="22.93" rerouteNo="0" devices="tripinfo_flow09.0" vType="CarA" speedFactor="1.12" vaporized=""/>
    <tripinfo id="flow06.0" depart="24.00" departLane="s_t_0" departPos="5.10" departSpeed="0.00" departDelay="0.79" arrival="51.00" arrivalLane="t_e_0" arrivalPos="136.25" arrivalSpeed="13.14" duration="27.00" routeLength="293.40" waitingTime="0.00" waitingCount="0" stopTime="0.00" timeLoss="4.57" rerouteNo="0" devices="tripinfo_flow06.0" vType="CarA" speedFactor="0.98" vaporized=""/>
    <tripinfo id="flow02.0" depart="1.00" departLane="n_t_0" departPos="5.10" departSpeed="0.00" departDelay="0.57" arrival="52.00" arrivalLane="t_w_0" arrivalPos="136.25" arrivalSpeed="11.86" duration="51.00" routeLength="293.40" waitingTime="18.00" waitingCount="1" stopTime="0.00" timeLoss="25.69" rerouteNo="0" devices="tripinfo_flow02.0" vType="CarA" speedFactor="0.85" vaporized=""/>
    <tripinfo id="flow09.1" depart="10.00" departLane="w_t_0" departPos="5.10" departSpeed="0.00" departDelay="5.38" arrival="53.00" arrivalLane="t_n_0" arrivalPos="136.25" arrivalSpeed="12.95" duration="43.00" routeLength="279.21" waitingTime="10.00" waitingCount="1" stopTime="0.00" timeLoss="21.16" rerouteNo="0" devices="tripinfo_flow09.1" vType="CarA" speedFactor="0.97" vaporized=""/>
    <tripinfo id="flow02.1" depart="18.00" departLane="n_t_0" departPos="5.10" departSpeed="0.00" departDelay="0.09" arrival="56.00" arrivalLane="t_w_0" arrivalPos="136.25" arrivalSpeed="9.58" duration="38.00" routeLength="293.40" waitingTime="1.00" waitingCount="1" stopTime="0.00" timeLoss="9.96" rerouteNo="0" devices="tripinfo_flow02.1" vType="CarA" speedFactor="0.78" vaporized=""/>
    <tripinfo id="flow03.0" depart="27.00" departLane="n_t_0" departPos="5.10" departSpeed="0.00" departDelay="0.71" arrival="59.00" arrivalLane="t_e_0" arrivalPos="136.25" arrivalSpeed="14.50" duration="32.00" routeLength="279.21" waitingTime="2.00" waitingCount="1" stopTime="0.00" timeLoss="12.35" rerouteNo="0" devices="tripinfo_flow03.0" vType="CarA" speedFactor="1.08" vaporized=""/>
    <tripinfo id="flow10.0" depart="2.00" departLane="e_t_0" departPos="5.10" departSpeed="0.00" departDelay="0.81" arrival="60.00" arrivalLane="t_w_0" arrivalPos="136.25" arrivalSpeed="14.66" duration="58.00" routeLength="294.90" waitingTime="27.00" waitingCount="1" stopTime="0.00" timeLoss="37.84" rerouteNo="0" devices="tripinfo_flow10.0" vType="CarA" speedFactor="1.08" vaporized=""/>
    <tripinfo id="flow12.1" depart="26.00" departLane="e_t_0" departPos="5.10" departSpeed="0.00" departDelay="0.36" arrival="60.00" arrivalLane="t_n_0" arrivalPos="136.25" arrivalSpeed="13.91" duration="34.00" routeLength="293.40" waitingTime="5.00" waitingCount="1" stopTime="0.00" timeLoss="12.85" rerouteNo="0" devices="tripinfo_flow12.1" vType="CarA" speedFactor="1.04" vaporized=""/>
    <tripinfo id="flow11.2" depart="34.00" departLane="e_t_0" departPos="5.10" departSpeed="0.00" departDelay="2.67" arrival="60.00" arrivalLane="t_s_0" arrivalPos="136.25" arrivalSpeed="13.71" duration="26.00" routeLength="279.21" waitingTime="0.00" waitingCount="0" stopTime="0.00" timeLoss="5.30" rerouteNo="0" devices="tripinfo_flow11.2" vType="CarA" speedFactor="1.00" vaporized=""/>
    <tripinfo id="flow10.1" depart="28.00" departLane="e_t_0" departPos="5.10" departSpeed="0.00" departDelay="1.50" arrival="65.00" arrivalLane="t_w_0" arrivalPos="136.25" arrivalSpeed="10.90" duration="37.00" routeLength="294.90" waitingTime="1.00" waitingCount="1" stopTime="0.00" timeLoss="10.77" rerouteNo="0" devices="tripinfo_flow10.1" vType="CarA" speedFactor="0.81" vaporized=""/>
    <tripinfo id="flow03.1" depart="39.00" departLane="n_t_0" departPos="5.10" departSpeed="0.00" departDelay="0.58" arrival="66.00" arrivalLane="t_e_0" arrivalPos="136.25" arrivalSpeed="12.77" duration="27.00" routeLength="279.21" waitingTime="0.00" waitingCount="0" stopTime="0.00" timeLoss="5.21" rerouteNo="0" devices="tripinfo_flow03.1" vType="CarA" speedFactor="0.96" vaporized=""/>
    <tripinfo id="flow10.2" depart="31.00" departLane="e_t_0" departPos="5.10" departSpeed="0.00" departDelay="4.18" arrival="67.00" arrivalLane="t_w_0" arrivalPos="136.25" arrivalSpeed="12.01" duration="36.00" routeLength="294.90" waitingTime="1.00" waitingCount="1" stopTime="0.00" timeLoss="13.27" rerouteNo="0" devices="tripinfo_flow10.2" vType="CarA" speedFactor="0.95" vaporized=""/>
    <tripinfo id="flow10.3" depart="37.00" departLane="e_t_0" departPos="5.10" departSpeed="0.00" departDelay="0.18" arrival="69.00" arrivalLane="t_w_0" arrivalPos="136.25" arrivalSpeed="10.58" duration="32.00" routeLength="294.90" waitingTime="0.00" waitingCount="0" stopTime="0.00" timeLoss="6.67" rerouteNo="0" devices="tripinfo_flow10.3" vType="CarA" speedFactor="0.84" vaporized=""/>
    <tripinfo id="flow11.3" depart="44.00" departLane="e_t_0" departPos="5.10" departSpeed="0.00" departDelay="3.87" arrival="69.00" arrivalLane="t_s_0" arrivalPos="136.25" arrivalSpeed="15.08" duration="25.00" routeLength="279.21" waitingTime="0.00" waitingCount="0" stopTime="0.00" timeLoss="5.87" rerouteNo="0" devices="tripinfo_flow11.3" vType="CarA" speedFactor="1.09" vaporized=""/>
    <tripinfo id="flow10.4" depart="39.00" departLane="e_t_0" departPos="5.10" departSpeed="0.00" departDelay="0.15" arrival="71.00" arrivalLane="t_w_0" arrivalPos="136.25" arrivalSpeed="13.11" duration="32.00" routeLength="294.90" waitingTime="0.00" waitingCount="0" stopTime="0.00" timeLoss="9.55" rerouteNo="0" devices="tripinfo_flow10.4" vType="CarA" speedFactor="0.97" vaporized=""/>
    <tripinfo id="flow12.2" depart="47.00" departLane="e_t_0" departPos="5.10" departSpeed="0.00" departDelay="3.04" arrival="72.00" arrivalLane="t_n_0" arrivalPos="136.25" arrivalSpeed="13.52" duration="25.00" routeLength="293.40" waitingTime="0.00" waitingCount="0" stopTime="0.00" timeLoss="4.02" rerouteNo="0" devices="tripinfo_flow12.2" vType="CarA" speedFactor="1.05" vaporized=""/>
    <tripinfo id="flow10.5" depart="41.00" departLane="e_t_0" departPos="5.10" departSpeed="0.00" departDelay="1.59" arrival="73.00" arrivalLane="t_w_0" arrivalPos="136.25" arrivalSpeed="12.42" duration="32.00" routeLength="294.90" waitingTime="0.00" waitingCount="0" stopTime="0.00" timeLoss="8.20" rerouteNo="0" devices="tripinfo_flow10.5" vType="CarA" speedFactor="0.92" vaporized=""/>
    <tripinfo id="flow03.2" depart="46.00" departLane="n_t_0" departPos="5.10" departSpeed="0.00" departDelay="0.38" arrival="74.00" arrivalLane="t_e_0" arrivalPos="136.25" arrivalSpeed="12.43" duration="28.00" routeLength="279.21" waitingTime="0.00" waitingCount="0" stopTime="0.00" timeLoss="5.88" rerouteNo="0" devices="tripinfo_flow03.2" vType="CarA" speedFactor="0.95" vaporized=""/>
    <tripinfo id="flow12.3" depart="48.00" departLane="e_t_0" departPos="5.10" departSpeed="0.00" departDelay="1.89" arrival="75.00" arrivalLane="t_n_0" arrivalPos="136.25" arrivalSpeed="13.72" duration="27.00" routeLength="293.40" waitingTime="0.00" waitingCount="0" stopTime="0.00" timeLoss="6.75" rerouteNo="0" devices="tripinfo_flow12.3" vType="CarA" speedFactor="1.08" vaporized=""/>
    <tripinfo id="flow03.3" depart="50.00" departLane="n_t_0" departPos="5.10" departSpeed="0.00" departDelay="0.88" arrival="76.00" arrivalLane="t_e_0" arrivalPos="136.25" arrivalSpeed="13.65" duration="26.00" routeLength="279.21" waitingTime="0.00" waitingCount="0" stopTime="0.00" timeLoss="6.38" rerouteNo="0" devices="tripinfo_flow03.3" vType="CarA" speedFactor="1.08" vaporized=""/>
    <tripinfo id="flow03.4" depart="53.00" departLane="n_t_0" departPos="5.10" departSpeed="0.00" departDelay="1.88" arrival="81.00" arrivalLane="t_e_0" arrivalPos="136.25" arrivalSpeed="12.29" duration="28.00" routeLength="279.21" waitingTime="0.00" waitingCount="0" stopTime="0.00" timeLoss="5.68" rerouteNo="0" devices="tripinfo_flow03.4" vType="CarA" speedFactor="0.97" vaporized=""/>
    <tripinfo id="flow05.2" depart="30.00" departLane="s_t_0" departPos="5.10" departSpeed="0.00" departDelay="0.43" arrival="87.00" arrivalLane="t_w_0" arrivalPos="136.25" arrivalSpeed="13.16" duration="57.00" routeLength="279.21" waitingTime="25.00" waitingCount="1" stopTime="0.00" timeLoss="35.00" rerouteNo="0" devices="tripinfo_flow05.2" vType="CarA" speedFactor="0.95" vaporized=""/>
    <tripinfo id="flow08.0" depart="13.00" departLane="w_t_0" departPos="5.10" departSpeed="0.00" departDelay="6.32" arrival="88.00" arrivalLane="t_s_0" arrivalPos="136.25" arrivalSpeed="13.87" duration="75.00" routeLength="293.40" waitingTime="44.00" waitingCount="1" stopTime="0.00" timeLoss="52.87" rerouteNo="0" devices="tripinfo_flow08.0" vType="CarA" speedFactor="1.01" vaporized=""/>
    <tripinfo id="flow05.3" depart="43.00" departLane="s_t_0" departPos="5.10" departSpeed="0.00" departDelay="0.05" arrival="89.00" arrivalLane="t_w_0" arrivalPos="136.25" arrivalSpeed="14.26" duration="46.00" routeLength="279.21" waitingTime="16.00" waitingCount="1" stopTime="0.00" timeLoss="25.19" rerouteNo="0" devices="tripinfo_flow05.3" vType="CarA" speedFactor="1.04" vaporized=""/>
    <tripinfo id="flow08.1" depart="15.00" departLane="w_t_0" departPos="5.10" departSpeed="0.00" departDelay="6.47" arrival="91.00" arrivalLane="t_s_0" arrivalPos="136.25" arrivalSpeed="11.28" duration="76.00" routeLength="293.40" waitingTime="42.00" waitingCount="1" stopTime="0.00" timeLoss="51.65" rerouteNo="0" devices="tripinfo_flow08.1" vType="CarA" speedFactor="0.90" vaporized=""/>
    <tripinfo id="flow12.4" depart="71.00" departLane="e_t_0" departPos="5.10" departSpeed="0.00" departDelay="0.34" arrival="97.00" arrivalLane="t_n_0" arrivalPos="136.25" arrivalSpeed="14.69" duration="26.00" routeLength="293.40" waitingTime="0.00" waitingCount="0" stopTime="0.00" timeLoss="4.82" rerouteNo="0" devices="tripinfo_flow12.4" vType="CarA" speedFactor="1.07" vaporized=""/>
    <tripinfo id="flow10.6" depart="57.00" departLane="e_t_0" departPos="5.10" departSpeed="0.00" departDelay="0.83" arrival="99.00" arrivalLane="t_w_0" arrivalPos="136.25" arrivalSpeed="11.07" duration="42.00" routeLength="294.90" waitingTime="10.00" waitingCount="1" stopTime="0.00" timeLoss="17.39" rerouteNo="0" devices="tripinfo_flow10.6" vType="CarA" speedFactor="0.88" vaporized=""/>
    <tripinfo id="flow10.7" depart="73.00" departLane="e_t_0" departPos="5.10" departSpeed="0.00" departDelay="0.18" arrival="101.00" arrivalLane="t_w_0" arrivalPos="136.25" arrivalSpeed="12.56" duration="28.00" routeLength="294.90" waitingTime="0.00" waitingCount="0" stopTime="0.00" timeLoss="4.08" rerouteNo="0" devices="tripinfo_flow10.7" vType="CarA" speedFactor="0.92" vaporized=""/>
    <tripinfo id="flow11.4" depart="80.00" departLane="e_t_0" departPos="5.10" departSpeed="0.00" departDelay="1.73" arrival="105.00" arrivalLane="t_s_0" arrivalPos="136.25" arrivalSpeed="13.54" duration="25.00" routeLength="279.21" waitingTime="0.00" waitingCount="0" stopTime="0.00" timeLoss="5.19" rerouteNo="0" devices="tripinfo_flow11.4" vType="CarA" speedFactor="1.06" vaporized=""/>
    <tripinfo id="flow05.4" depart="53.00" departLane="s_t_0" departPos="5.10" departSpeed="0.00" departDelay="2.72" arrival="106.00" arrivalLane="t_w_0" arrivalPos="136.25" arrivalSpeed="17.17" duration="53.00" routeLength="279.21" waitingTime="22.00" waitingCount="2" stopTime="0.00" timeLoss="36.45" rerouteNo="0" devices="tripinfo_flow05.4" vType="CarA" speedFactor="1.27" vaporized=""/>
    <tripinfo id="flow04.0" depart="8.00" departLane="s_t_0" departPos="5.10" departSpeed="0.00" departDelay="0.23" arrival="107.00" arrivalLane="t_n_0" arrivalPos="136.25" arrivalSpeed="14.19" duration="99.00" routeLength="294.90" waitingTime="68.00" waitingCount="1" stopTime="0.00" timeLoss="78.24" rerouteNo="0" devices="tripinfo_flow04.0" vType="CarA" speedFactor="1.04" vaporized=""/>
    <tripinfo id="flow05.5" depart="71.00" departLane="s_t_0" departPos="5.10" departSpeed="0.00" departDelay="0.60" arrival="109.00" arrivalLane="t_w_0" arrivalPos="136.25" arrivalSpeed="13.73" duration="38.00" routeLength="279.21" waitingTime="8.00" waitingCount="1" stopTime="0.00" timeLoss="18.04" rerouteNo="0" devices="tripinfo_flow05.5" vType="CarA" speedFactor="1.06" vaporized=""/>
    <tripinfo id="flow11.5" depart="83.00" departLane="e_t_0" departPos="5.10" departSpeed="0.00" departDelay="3.87" arrival="109.00" arrivalLane="t_s_0" arrivalPos="136.25" arrivalSpeed="13.78" duration="26.00" routeLength="279.21" waitingTime="0.00" waitingCount="0" stopTime="0.00" timeLoss="5.53" rerouteNo="0" devices="tripinfo_flow11.5" vType="CarA" speedFactor="1.02" vaporized=""/>
    <tripinfo id="flow03.5" depart="83.00" departLane="n_t_0" departPos="5.10" departSpeed="0.00" departDelay="0.93" arrival="110.00" arrivalLane="t_e_0" arrivalPos="136.25" arrivalSpeed="13.00" duration="27.00" routeLength="279.21" waitingTime="0.00" waitingCount="0" stopTime="0.00" timeLoss="4.95" rerouteNo="0" devices="tripinfo_flow03.5" vType="CarA" speedFactor="0.98" vaporized=""/>
    <tripinfo id="flow04.1" depart="14.00" departLane="s_t_0" departPos="5.10" departSpeed="0.00" departDelay="5.15" arrival="111.00" arrivalLane="t_n_0" arrivalPos="136.25" arrivalSpeed="12.16" duration="97.00" routeLength="294.90" waitingTime="63.00" waitingCount="1" stopTime="0.00" timeLoss="72.82" rerouteNo="0" devices="tripinfo_flow04.1" vType="CarA" speedFactor="0.91" vaporized=""/>
    <tripinfo id="flow09.2" depart="62.00" departLane="w_t_0" departPos="5.10" departSpeed="0.00" departDelay="0.48" arrival="115.00" arrivalLane="t_n_0" arrivalPos="136.25" arrivalSpeed="17.70" duration="53.00" routeLength="279.21" waitingTime="25.00" waitingCount="1" stopTime="0.00" timeLoss="36.70" rerouteNo="0" devices="tripinfo_flow09.2" vType="CarA" speedFactor="1.34" vaporized=""/>
    <tripinfo id="flow07.0" depart="4.00" departLane="w_t_0" departPos="5.10" departSpeed="0.00" departDelay="0.21" arrival="117.00" arrivalLane="t_e_0" arrivalPos="136.25" arrivalSpeed="13.29" duration="113.00" routeLength="294.90" waitingTime="83.00" waitingCount="1" stopTime="0.00" timeLoss="92.18" rerouteNo="0" devices="tripinfo_flow07.0" vType="CarA" speedFactor="1.02" vaporized=""/>
    <tripinfo id="flow10.8" depart="76.00" departLane="e_t_0" departPos="5.10" departSpeed="0.00" departDelay="2.81" arrival="117.00" arrivalLane="t_w_0" arrivalPos="136.25" arrivalSpeed="13.29" duration="41.00" routeLength="294.90" waitingTime="10.00" waitingCount="1" stopTime="0.00" timeLoss="20.22" rerouteNo="0" devices="tripinfo_flow10.8" vType="CarA" speedFactor="1.04" vaporized=""/>
    <tripinfo id="flow11.6" depart="90.00" departLane="e_t_0" departPos="5.10" departSpeed="0.00" departDelay="0.16" arrival="117.00" arrivalLane="t_s_0" arrivalPos="136.25" arrivalSpeed="12.75" duration="27.00" routeLength="279.21" waitingTime="0.00" waitingCount="0" stopTime="0.00" timeLoss="5.64" rerouteNo="0" devices="tripinfo_flow11.6" vType="CarA" speedFactor="1.00" vaporized=""/>
    <tripinfo id="flow09.3" depart="93.00" departLane="w_t_0" departPos="5.10" departSpeed="0.00" departDelay="2.44" arrival="120.00" arrivalLane="t_n_0" arrivalPos="136.25" arrivalSpeed="12.91" duration="27.00" routeLength="279.21" waitingTime="0.00" waitingCount="0" stopTime="0.00" timeLoss="5.81" rerouteNo="0" devices="tripinfo_flow09.3" vType="CarA" speedFactor="1.01" vaporized=""/>
    <tripinfo id="flow10.9" depart="93.00" departLane="e_t_0" departPos="5.10" departSpeed="0.00" departDelay="1.56" arrival="120.00" arrivalLane="t_w_0" arrivalPos="136.25" arrivalSpeed="12.74" duration="27.00" routeLength="294.90" waitingTime="0.00" waitingCount="0" stopTime="0.00" timeLoss="4.57" rerouteNo="0" devices="tripinfo_flow10.9" vType="CarA" speedFactor="0.95" vaporized=""/>
    <tripinfo id="flow07.1" depart="17.00" departLane="w_t_0" departPos="5.10" departSpeed="0.00" departDelay="7.76" arrival="121.00" arrivalLane="t_e_0" arrivalPos="136.25" arrivalSpeed="10.98" duration="104.00" routeLength="294.90" waitingTime="71.00" waitingCount="1" stopTime="0.00" timeLoss="79.28" rerouteNo="0" devices="tripinfo_flow07.1" vType="CarA" speedFactor="0.86" vaporized=""/>
    <tripinfo id="flow10.10" depart="96.00" departLane="e_t_0" departPos="5.10" departSpeed="0.00" departDelay="0.02" arrival="122.00" arrivalLane="t_w_0" arrivalPos="136.25" arrivalSpeed="14.02" duration="26.00" routeLength="294.90" waitingTime="0.00" waitingCount="0" stopTime="0.00" timeLoss="5.83" rerouteNo="0" devices="tripinfo_flow10.10" vType="CarA" speedFactor="1.08" vaporized=""/>
    <tripinfo id="flow07.2" depart="22.00" departLane="w_t_0" departPos="5.10" departSpeed="0.00" departDelay="0.73" arrival="123.00" arrivalLane="t_e_0" arrivalPos="136.25" arrivalSpeed="14.11" duration="101.00" routeLength="294.90" waitingTime="67.00" waitingCount="1" stopTime="0.00" timeLoss="81.34" rerouteNo="0" devices="tripinfo_flow07.2" vType="CarA" speedFactor="1.10" vaporized=""/>
    <tripinfo id="flow07.3" depart="31.00" departLane="w_t_0" departPos="5.10" departSpeed="0.00" departDelay="0.91" arrival="125.00" arrivalLane="t_e_0" arrivalPos="136.25" arrivalSpeed="13.43" duration="94.00" routeLength="294.90" waitingTime="61.00" waitingCount="1" stopTime="0.00" timeLoss="71.43" rerouteNo="0" devices="tripinfo_flow07.3" vType="CarA" speedFactor="0.97" vaporized=""/>
    <tripinfo id="flow07.4" depart="34.00" departLane="w_t_0" departPos="5.10" departSpeed="0.00" departDelay="2.39" arrival="127.00" arrivalLane="t_e_0" arrivalPos="136.25" arrivalSpeed="13.05" duration="93.00" routeLength="294.90" waitingTime="59.00" waitingCount="1" stopTime="0.00" timeLoss="69.95" rerouteNo="0" devices="tripinfo_flow07.4" vType="CarA" speedFactor="0.96" vaporized=""/>
    <tripinfo id="flow07.5" depart="42.00" departLane="w_t_0" departPos="5.10" departSpeed="0.00" departDelay="0.14" arrival="128.00" arrivalLane="t_e_0" arrivalPos="136.25" arrivalSpeed="13.69" duration="86.00" routeLength="294.90" waitingTime="53.00" waitingCount="1" stopTime="0.00" timeLoss="65.15" rerouteNo="0" devices="tripinfo_flow07.5" vType="CarA" speedFactor="1.03" vaporized=""/>
    <tripinfo id="flow04.2" depart="26.00" departLane="s_t_0" departPos="5.10" departSpeed="0.00" departDelay="1.40" arrival="135.00" arrivalLane="t_n_0" arrivalPos="136.25" arrivalSpeed="13.41" duration="109.00" routeLength="294.90" waitingTime="71.00" waitingCount="2" stopTime="0.00" timeLoss="88.09" rerouteNo="0" devices="tripinfo_flow04.2" vType="CarA" speedFactor="1.04" vaporized=""/>
    <tripinfo id="flow04.3" depart="46.00" departLane="s_t_0" departPos="5.10" departSpeed="0.00" departDelay="1.44" arrival="137.00" arrivalLane="t_n_0" arrivalPos="136.25" arrivalSpeed="14.98" duration="91.00" routeLength="294.90" waitingTime="53.00" waitingCount="2" stopTime="0.00" timeLoss="70.50" rerouteNo="0" devices="tripinfo_flow04.3" vType="CarA" speedFactor="1.08" vaporized=""/>
    <tripinfo id="flow11.7" depart="109.00" departLane="e_t_0" departPos="5.10" departSpeed="0.00" departDelay="0.95" arrival="139.00" arrivalLane="t_s_0" arrivalPos="136.25" arrivalSpeed="10.66" duration="30.00" routeLength="279.21" waitingTime="0.00" waitingCount="0" stopTime="0.00" timeLoss="4.86" rerouteNo="0" devices="tripinfo_flow11.7" vType="CarA" speedFactor="0.85" vaporized=""/>
    <tripinfo id="flow11.8" depart="112.00" departLane="e_t_0" departPos="5.10" departSpeed="0.00" departDelay="2.05" arrival="140.00" arrivalLane="t_s_0" arrivalPos="136.25" arrivalSpeed="11.93" duration="28.00" routeLength="279.21" waitingTime="0.00" waitingCount="0" stopTime="0.00" timeLoss="8.19" rerouteNo="0" devices="tripinfo_flow11.8" vType="CarA" speedFactor="1.06" vaporized=""/>
    <tripinfo id="flow12.5" depart="78.00" departLane="e_t_0" departPos="5.10" departSpeed="0.00" departDelay="3.96" arrival="146.00" arrivalLane="t_n_0" arrivalPos="136.25" arrivalSpeed="12.88" duration="68.00" routeLength="293.40" waitingTime="35.00" waitingCount="1" stopTime="0.00" timeLoss="44.34" rerouteNo="0" devices="tripinfo_flow12.5" vType="CarA" speedFactor="0.95" vaporized=""/>
    <tripinfo id="flow11.9" depart="118.00" departLane="e_t_0" departPos="5.10" departSpeed="0.00" departDelay="1.41" arrival="147.00" arrivalLane="t_s_0" arrivalPos="136.25" arrivalSpeed="11.92" duration="29.00" routeLength="279.21" waitingTime="0.00" waitingCount="0" stopTime="0.00" timeLoss="5.84" rerouteNo="0" devices="tripinfo_flow11.9" vType="CarA" speedFactor="0.91" vaporized=""/>
    <tripinfo id="flow12.6" depart="88.00" departLane="e_t_0" departPos="5.10" departSpeed="0.00" departDelay="0.80" arrival="148.00" arrivalLane="t_n_0" arrivalPos="136.25" arrivalSpeed="12.74" duration="60.00" routeLength="293.40" waitingTime="28.00" waitingCount="1" stopTime="0.00" timeLoss="36.55" rerouteNo="0" devices="tripinfo_flow12.6" vType="CarA" speedFactor="0.94" vaporized=""/>
    <tripinfo id="flow12.7" depart="115.00" departLane="e_t_0" departPos="5.10" departSpeed="0.00" departDelay="3.60" arrival="150.00" arrivalLane="t_n_0" arrivalPos="136.25" arrivalSpeed="13.30" duration="35.00" routeLength="293.40" waitingTime="3.00" waitingCount="1" stopTime="0.00" timeLoss="13.64" rerouteNo="0" devices="tripinfo_flow12.7" vType="CarA" speedFactor="1.04" vaporized=""/>
    <tripinfo id="flow12.8" depart="116.00" departLane="e_t_0" departPos="5.10" departSpeed="0.00" departDelay="2.21" arrival="152.00" arrivalLane="t_n_0" arrivalPos="136.25" arrivalSpeed="13.14" duration="36.00" routeLength="293.40" waitingTime="2.00" waitingCount="1" stopTime="0.00" timeLoss="13.09" rerouteNo="0" devices="tripinfo_flow12.8" vType="CarA" speedFactor="0.97" vaporized=""/>
    <tripinfo id="flow05.6" depart="126.00" departLane="s_t_0" departPos="5.10" departSpeed="0.00" departDelay="0.99" arrival="154.00" arrivalLane="t_w_0" arrivalPos="136.25" arrivalSpeed="11.93" duration="28.00" routeLength="279.21" waitingTime="0.00" waitingCount="0" stopTime="0.00" timeLoss="5.71" rerouteNo="0" devices="tripinfo_flow05.6" vType="CarA" speedFactor="0.94" vaporized=""/>
    <tripinfo id="flow12.9" depart="127.00" departLane="e_t_0" departPos="5.10" departSpeed="0.00" departDelay="4.33" arrival="156.00" arrivalLane="t_n_0" arrivalPos="136.25" arrivalSpeed="12.04" duration="29.00" routeLength="293.40" waitingTime="0.00" waitingCount="0" stopTime="0.00" timeLoss="5.20" rerouteNo="0" devices="tripinfo_flow12.9" vType="CarA" speedFactor="0.92" vaporized=""/>
    <tripinfo id="flow09.4" depart="120.00" departLane="w_t_0" departPos="5.10" departSpeed="0.00" departDelay="0.95" arrival="162.00" arrivalLane="t_n_0" arrivalPos="136.25" arrivalSpeed="13.18" duration="42.00" routeLength="279.21" waitingTime="11.00" waitingCount="1" stopTime="0.00" timeLoss="21.20" rerouteNo="0" devices="tripinfo_flow09.4" vType="CarA" speedFactor="1.03" vaporized=""/>
    <tripinfo id="flow07.6" depart="50.00" departLane="w_t_0" departPos="5.10" departSpeed="0.00" departDelay="1.00" arrival="163.00" arrivalLane="t_e_0" arrivalPos="136.25" arrivalSpeed="14.62" duration="113.00" routeLength="294.90" waitingTime="74.00" waitingCount="2" stopTime="0.00" timeLoss="92.17" rerouteNo="0" devices="tripinfo_flow07.6" vType="CarA" speedFactor="1.07" vaporized=""/>
    <tripinfo id="flow07.7" depart="52.00" departLane="w_t_0" departPos="5.10" departSpeed="0.00" departDelay="2.95" arrival="164.00" arrivalLane="t_e_0" arrivalPos="136.25" arrivalSpeed="14.98" duration="112.00" routeLength="294.90" waitingTime="73.00" waitingCount="2" stopTime="0.00" timeLoss="93.32" rerouteNo="0" devices="tripinfo_flow07.7" vType="CarA" speedFactor="1.15" vaporized=""/>
    <tripinfo id="flow10.11" depart="121.00" departLane="e_t_0" departPos="5.10" departSpeed="0.00" departDelay="1.55" arrival="164.00" arrivalLane="t_w_0" arrivalPos="136.25" arrivalSpeed="12.02" duration="43.00" routeLength="294.90" waitingTime="9.00" waitingCount="1" stopTime="0.00" timeLoss="18.09" rerouteNo="0" devices="tripinfo_flow10.11" vType="CarA" speedFactor="0.87" vaporized=""/>
    <tripinfo id="flow09.5" depart="124.00" departLane="w_t_0" departPos="5.10" departSpeed="0.00" departDelay="1.48" arrival="164.00" arrivalLane="t_n_0" arrivalPos="136.25" arrivalSpeed="13.79" duration="40.00" routeLength="279.21" waitingTime="9.00" waitingCount="1" stopTime="0.00" timeLoss="19.65" rerouteNo="0" devices="tripinfo_flow09.5" vType="CarA" speedFactor="1.04" vaporized=""/>
    <tripinfo id="flow07.8" depart="56.00" departLane="w_t_0" departPos="5.10" departSpeed="0.00" departDelay="4.96" arrival="166.00" arrivalLane="t_e_0" arrivalPos="136.25" arrivalSpeed="16.86" duration="110.00" routeLength="294.90" waitingTime="71.00" waitingCount="2" stopTime="0.00" timeLoss="92.16" rerouteNo="0" devices="tripinfo_flow07.8" vType="CarA" speedFactor="1.23" vaporized=""/>
    <tripinfo id="flow10.12" depart="124.00" departLane="e_t_0" departPos="5.10" departSpeed="0.00" departDelay="2.27" arrival="166.00" arrivalLane="t_w_0" arrivalPos="136.25" arrivalSpeed="11.00" duration="42.00" routeLength="294.90" waitingTime="7.00" waitingCount="1" stopTime="0.00" timeLoss="17.49" rerouteNo="0" devices="tripinfo_flow10.12" vType="CarA" speedFactor="0.87" vaporized=""/>
    <tripinfo id="flow10.13" depart="130.00" departLane="e_t_0" departPos="5.10" departSpeed="0.00" departDelay="2.40" arrival="168.00" arrivalLane="t_w_0" arrivalPos="136.25" arrivalSpeed="13.70" duration="38.00" routeLength="294.90" waitingTime="5.00" waitingCount="1" stopTime="0.00" timeLoss="16.44" rerouteNo="0" devices="tripinfo_flow10.13" vType="CarA" speedFactor="1.01" vaporized=""/>
    <tripinfo id="flow10.14" depart="133.00" departLane="e_t_0" departPos="5.10" departSpeed="0.00" departDelay="4.63" arrival="170.00" arrivalLane="t_w_0" arrivalPos="136.25" arrivalSpeed="11.85" duration="37.00" routeLength="294.90" waitingTime="3.00" waitingCount="1" stopTime="0.00" timeLoss="12.60" rerouteNo="0" devices="tripinfo_flow10.14" vType="CarA" speedFactor="0.88" vaporized=""/>
    <tripinfo id="flow07.9" depart="57.00" departLane="w_t_0" departPos="5.10" departSpeed="0.00" departDelay="5.35" arrival="171.00" arrivalLane="t_e_0" arrivalPos="136.25" arrivalSpeed="11.02" duration="114.00" routeLength="294.90" waitingTime="71.00" waitingCount="3" stopTime="0.00" timeLoss="87.80" rerouteNo="0" devices="tripinfo_flow07.9" vType="CarA" speedFactor="0.81" vaporized=""/>
    <tripinfo id="flow10.15" depart="137.00" departLane="e_t_0" departPos="5.10" departSpeed="0.00" departDelay="5.36" arrival="172.00" arrivalLane="t_w_0" arrivalPos="136.25" arrivalSpeed="12.07" duration="35.00" routeLength="294.90" waitingTime="1.00" waitingCount="1" stopTime="0.00" timeLoss="12.33" rerouteNo="0" devices="tripinfo_flow10.15" vType="CarA" speedFactor="0.96" vaporized=""/>