<?xml version="1.0" encoding="UTF-8"?>

<!-- generated on 2024-06-10 18:47:26 by Eclipse SUMO libsumo Version 1.20.0
<configuration xmlns:xsi="http://www.w3.org/2001/XMLSchema-instance" xsi:noNamespaceSchemaLocation="http://sumo.dlr.de/xsd/libsumoConfiguration.xsd">

    <input>
        <net-file value="sumo_rl/nets/2way-single-intersection/single-intersection-2.net.xml"/>
        <route-files value="sumo_rl/nets/2way-single-intersection/single-intersection-vhvh.rou.xml"/>
    </input>

    <output>
        <tripinfo-output value="outputs/l0.0001-normal-untrained\tripinfos_20240610184725_20240610184726.xml"/>
    </output>

    <processing>
        <time-to-teleport value="-1"/>
        <waiting-time-memory value="1000"/>
        <max-depart-delay value="-1"/>
    </processing>

    <random_number>
        <random value="true"/>
    </random_number>

</configuration>
-->

<tripinfos xmlns:xsi="http://www.w3.org/2001/XMLSchema-instance" xsi:noNamespaceSchemaLocation="http://sumo.dlr.de/xsd/tripinfo_file.xsd">
    <tripinfo id="flow09.0" depart="7.00" departLane="w_t_0" departPos="5.10" departSpeed="0.00" departDelay="0.75" arrival="34.00" arrivalLane="t_n_0" arrivalPos="136.25" arrivalSpeed="12.18" duration="27.00" routeLength="279.21" waitingTime="0.00" waitingCount="0" stopTime="0.00" timeLoss="4.73" rerouteNo="0" devices="tripinfo_flow09.0" vType="CarA" speedFactor="0.96" vaporized=""/>
    <tripinfo id="flow09.1" depart="10.00" departLane="w_t_0" departPos="5.10" departSpeed="0.00" departDelay="3.69" arrival="38.00" arrivalLane="t_n_0" arrivalPos="136.25" arrivalSpeed="12.50" duration="28.00" routeLength="279.21" waitingTime="0.00" waitingCount="0" stopTime="0.00" timeLoss="4.72" rerouteNo="0" devices="tripinfo_flow09.1" vType="CarA" speedFactor="0.93" vaporized=""/>
    <tripinfo id="flow05.0" depart="12.00" departLane="s_t_0" departPos="5.10" departSpeed="0.00" departDelay="0.60" arrival="38.00" arrivalLane="t_w_0" arrivalPos="136.25" arrivalSpeed="13.54" duration="26.00" routeLength="279.21" waitingTime="0.00" waitingCount="0" stopTime="0.00" timeLoss="4.24" rerouteNo="0" devices="tripinfo_flow05.0" vType="CarA" speedFactor="1.00" vaporized=""/>
    <tripinfo id="flow11.0" depart="22.00" departLane="e_t_0" departPos="5.10" departSpeed="0.00" departDelay="0.43" arrival="47.00" arrivalLane="t_s_0" arrivalPos="136.25" arrivalSpeed="14.36" duration="25.00" routeLength="279.21" waitingTime="0.00" waitingCount="0" stopTime="0.00" timeLoss="5.36" rerouteNo="0" devices="tripinfo_flow11.0" vType="CarA" speedFactor="1.06" vaporized=""/>
    <tripinfo id="flow05.1" depart="23.00" departLane="s_t_0" departPos="5.10" departSpeed="0.00" departDelay="2.09" arrival="50.00" arrivalLane="t_w_0" arrivalPos="136.25" arrivalSpeed="12.63" duration="27.00" routeLength="279.21" waitingTime="0.00" waitingCount="0" stopTime="0.00" timeLoss="5.30" rerouteNo="0" devices="tripinfo_flow05.1" vType="CarA" speedFactor="0.98" vaporized=""/>
    <tripinfo id="flow09.2" depart="24.00" departLane="w_t_0" departPos="5.10" departSpeed="0.00" departDelay="1.93" arrival="50.00" arrivalLane="t_n_0" arrivalPos="136.25" arrivalSpeed="13.30" duration="26.00" routeLength="279.21" waitingTime="0.00" waitingCount="0" stopTime="0.00" timeLoss="5.52" rerouteNo="0" devices="tripinfo_flow09.2" vType="CarA" speedFactor="1.04" vaporized=""/>
    <tripinfo id="flow05.2" depart="30.00" departLane="s_t_0" departPos="5.10" departSpeed="0.00" departDelay="3.36" arrival="57.00" arrivalLane="t_w_0" arrivalPos="136.25" arrivalSpeed="12.22" duration="27.00" routeLength="279.21" waitingTime="0.00" waitingCount="0" stopTime="0.00" timeLoss="4.78" rerouteNo="0" devices="tripinfo_flow05.2" vType="CarA" speedFactor="0.96" vaporized=""/>
    <tripinfo id="flow09.3" depart="38.00" departLane="w_t_0" departPos="5.10" departSpeed="0.00" departDelay="0.76" arrival="69.00" arrivalLane="t_n_0" arrivalPos="136.25" arrivalSpeed="10.87" duration="31.00" routeLength="279.21" waitingTime="0.00" waitingCount="0" stopTime="0.00" timeLoss="4.44" rerouteNo="0" devices="tripinfo_flow09.3" vType="CarA" speedFactor="0.80" vaporized=""/>
    <tripinfo id="flow11.1" depart="45.00" departLane="e_t_0" departPos="5.10" departSpeed="0.00" departDelay="0.94" arrival="70.00" arrivalLane="t_s_0" arrivalPos="136.25" arrivalSpeed="14.35" duration="25.00" routeLength="279.21" waitingTime="0.00" waitingCount="0" stopTime="0.00" timeLoss="5.57" rerouteNo="0" devices="tripinfo_flow11.1" vType="CarA" speedFactor="1.06" vaporized=""/>
    <tripinfo id="flow11.2" depart="48.00" departLane="e_t_0" departPos="5.10" departSpeed="0.00" departDelay="3.67" arrival="73.00" arrivalLane="t_s_0" arrivalPos="136.25" arrivalSpeed="15.08" duration="25.00" routeLength="279.21" waitingTime="0.00" waitingCount="0" stopTime="0.00" timeLoss="6.07" rerouteNo="0" devices="tripinfo_flow11.2" vType="CarA" speedFactor="1.10" vaporized=""/>
    <tripinfo id="flow03.0" depart="29.00" departLane="n_t_0" departPos="5.10" departSpeed="0.00" departDelay="0.88" arrival="74.00" arrivalLane="t_e_0" arrivalPos="136.25" arrivalSpeed="11.59" duration="45.00" routeLength="279.21" waitingTime="14.00" waitingCount="1" stopTime="0.00" timeLoss="20.72" rerouteNo="0" devices="tripinfo_flow03.0" vType="CarA" speedFactor="0.87" vaporized=""/>
    <tripinfo id="flow06.0" depart="44.00" departLane="s_t_0" departPos="5.10" departSpeed="0.00" departDelay="0.49" arrival="84.00" arrivalLane="t_e_0" arrivalPos="136.25" arrivalSpeed="12.44" duration="40.00" routeLength="293.40" waitingTime="8.00" waitingCount="1" stopTime="0.00" timeLoss="17.08" rerouteNo="0" devices="tripinfo_flow06.0" vType="CarA" speedFactor="0.95" vaporized=""/>
    <tripinfo id="flow09.4" depart="59.00" departLane="w_t_0" departPos="5.10" departSpeed="0.00" departDelay="0.32" arrival="88.00" arrivalLane="t_n_0" arrivalPos="136.25" arrivalSpeed="11.79" duration="29.00" routeLength="279.21" waitingTime="0.00" waitingCount="0" stopTime="0.00" timeLoss="5.03" rerouteNo="0" devices="tripinfo_flow09.4" vType="CarA" speedFactor="0.88" vaporized=""/>
    <tripinfo id="flow09.5" depart="62.00" departLane="w_t_0" departPos="5.10" departSpeed="0.00" departDelay="2.46" arrival="90.00" arrivalLane="t_n_0" arrivalPos="136.25" arrivalSpeed="13.90" duration="28.00" routeLength="279.21" waitingTime="0.00" waitingCount="0" stopTime="0.00" timeLoss="6.75" rerouteNo="0" devices="tripinfo_flow09.5" vType="CarA" speedFactor="1.02" vaporized=""/>
    <tripinfo id="flow11.3" depart="64.00" departLane="e_t_0" departPos="5.10" departSpeed="0.00" departDelay="1.63" arrival="93.00" arrivalLane="t_s_0" arrivalPos="136.25" arrivalSpeed="11.00" duration="29.00" routeLength="279.21" waitingTime="0.00" waitingCount="0" stopTime="0.00" timeLoss="4.65" rerouteNo="0" devices="tripinfo_flow11.3" vType="CarA" speedFactor="0.86" vaporized=""/>
    <tripinfo id="flow09.6" depart="67.00" departLane="w_t_0" departPos="5.10" departSpeed="0.00" departDelay="0.25" arrival="93.00" arrivalLane="t_n_0" arrivalPos="136.25" arrivalSpeed="12.58" duration="26.00" routeLength="279.21" waitingTime="0.00" waitingCount="0" stopTime="0.00" timeLoss="5.00" rerouteNo="0" devices="tripinfo_flow09.6" vType="CarA" speedFactor="0.98" vaporized=""/>
    <tripinfo id="flow10.0" depart="13.00" departLane="e_t_0" departPos="5.10" departSpeed="0.00" departDelay="0.12" arrival="95.00" arrivalLane="t_w_0" arrivalPos="136.25" arrivalSpeed="12.49" duration="82.00" routeLength="294.90" waitingTime="50.00" waitingCount="1" stopTime="0.00" timeLoss="57.51" rerouteNo="0" devices="tripinfo_flow10.0" vType="CarA" speedFactor="0.90" vaporized=""/>
    <tripinfo id="flow07.0" depart="21.00" departLane="w_t_0" departPos="5.10" departSpeed="0.00" departDelay="1.96" arrival="95.00" arrivalLane="t_e_0" arrivalPos="136.25" arrivalSpeed="10.96" duration="74.00" routeLength="294.90" waitingTime="41.00" waitingCount="1" stopTime="0.00" timeLoss="49.57" rerouteNo="0" devices="tripinfo_flow07.0" vType="CarA" speedFactor="0.88" vaporized=""/>
    <tripinfo id="flow10.1" depart="25.00" departLane="e_t_0" departPos="5.10" departSpeed="0.00" departDelay="1.56" arrival="96.00" arrivalLane="t_w_0" arrivalPos="136.25" arrivalSpeed="13.36" duration="71.00" routeLength="294.90" waitingTime="39.00" waitingCount="1" stopTime="0.00" timeLoss="50.68" rerouteNo="0" devices="tripinfo_flow10.1" vType="CarA" speedFactor="1.06" vaporized=""/>
    <tripinfo id="flow09.7" depart="70.00" departLane="w_t_0" departPos="5.10" departSpeed="0.00" departDelay="0.04" arrival="96.00" arrivalLane="t_n_0" arrivalPos="136.25" arrivalSpeed="13.97" duration="26.00" routeLength="279.21" waitingTime="0.00" waitingCount="0" stopTime="0.00" timeLoss="5.68" rerouteNo="0" devices="tripinfo_flow09.7" vType="CarA" speedFactor="1.06" vaporized=""/>
    <tripinfo id="flow07.1" depart="31.00" departLane="w_t_0" departPos="5.10" departSpeed="0.00" departDelay="0.61" arrival="97.00" arrivalLane="t_e_0" arrivalPos="136.25" arrivalSpeed="15.06" duration="66.00" routeLength="294.90" waitingTime="35.00" waitingCount="1" stopTime="0.00" timeLoss="47.67" rerouteNo="0" devices="tripinfo_flow07.1" vType="CarA" speedFactor="1.21" vaporized=""/>
    <tripinfo id="flow01.0" depart="16.00" departLane="n_t_0" departPos="5.10" departSpeed="0.00" departDelay="0.46" arrival="102.00" arrivalLane="t_s_0" arrivalPos="136.25" arrivalSpeed="14.39" duration="86.00" routeLength="294.90" waitingTime="58.00" waitingCount="1" stopTime="0.00" timeLoss="66.79" rerouteNo="0" devices="tripinfo_flow01.0" vType="CarA" speedFactor="1.11" vaporized=""/>
    <tripinfo id="flow04.0" depart="17.00" departLane="s_t_0" departPos="5.10" departSpeed="0.00" departDelay="0.81" arrival="102.00" arrivalLane="t_n_0" arrivalPos="136.25" arrivalSpeed="14.42" duration="85.00" routeLength="294.90" waitingTime="56.00" waitingCount="1" stopTime="0.00" timeLoss="65.76" rerouteNo="0" devices="tripinfo_flow04.0" vType="CarA" speedFactor="1.12" vaporized=""/>
    <tripinfo id="flow03.1" depart="71.00" departLane="n_t_0" departPos="5.10" departSpeed="0.00" departDelay="0.95" arrival="102.00" arrivalLane="t_e_0" arrivalPos="136.25" arrivalSpeed="14.79" duration="31.00" routeLength="279.21" waitingTime="1.00" waitingCount="1" stopTime="0.00" timeLoss="11.34" rerouteNo="0" devices="tripinfo_flow03.1" vType="CarA" speedFactor="1.08" vaporized=""/>
    <tripinfo id="flow04.1" depart="20.00" departLane="s_t_0" departPos="5.10" departSpeed="0.00" departDelay="2.31" arrival="105.00" arrivalLane="t_n_0" arrivalPos="136.25" arrivalSpeed="12.54" duration="85.00" routeLength="294.90" waitingTime="54.00" waitingCount="1" stopTime="0.00" timeLoss="63.10" rerouteNo="0" devices="tripinfo_flow04.1" vType="CarA" speedFactor="0.98" vaporized=""/>
    <tripinfo id="flow03.2" depart="82.00" departLane="n_t_0" departPos="5.10" departSpeed="0.00" departDelay="0.45" arrival="106.00" arrivalLane="t_e_0" arrivalPos="136.25" arrivalSpeed="14.52" duration="24.00" routeLength="279.21" waitingTime="0.00" waitingCount="0" stopTime="0.00" timeLoss="4.66" rerouteNo="0" devices="tripinfo_flow03.2" vType="CarA" speedFactor="1.07" vaporized=""/>
    <tripinfo id="flow01.1" depart="26.00" departLane="n_t_0" departPos="5.10" departSpeed="0.00" departDelay="0.91" arrival="107.00" arrivalLane="t_s_0" arrivalPos="136.25" arrivalSpeed="12.20" duration="81.00" routeLength="294.90" waitingTime="49.00" waitingCount="1" stopTime="0.00" timeLoss="56.44" rerouteNo="0" devices="tripinfo_flow01.1" vType="CarA" speedFactor="0.89" vaporized=""/>
    <tripinfo id="flow04.2" depart="27.00" departLane="s_t_0" departPos="5.10" departSpeed="0.00" departDelay="0.36" arrival="107.00" arrivalLane="t_n_0" arrivalPos="136.25" arrivalSpeed="13.28" duration="80.00" routeLength="294.90" waitingTime="49.00" waitingCount="1" stopTime="0.00" timeLoss="58.32" rerouteNo="0" devices="tripinfo_flow04.2" vType="CarA" speedFactor="1.00" vaporized=""/>
    <tripinfo id="flow01.2" depart="43.00" departLane="n_t_0" departPos="5.10" departSpeed="0.00" departDelay="0.88" arrival="108.00" arrivalLane="t_s_0" arrivalPos="136.25" arrivalSpeed="13.92" duration="65.00" routeLength="294.90" waitingTime="33.00" waitingCount="1" stopTime="0.00" timeLoss="44.38" rerouteNo="0" devices="tripinfo_flow01.2" vType="CarA" speedFactor="1.04" vaporized=""/>
    <tripinfo id="flow04.3" depart="51.00" departLane="s_t_0" departPos="5.10" departSpeed="0.00" departDelay="0.23" arrival="109.00" arrivalLane="t_n_0" arrivalPos="136.25" arrivalSpeed="13.47" duration="58.00" routeLength="294.90" waitingTime="27.00" waitingCount="1" stopTime="0.00" timeLoss="37.23" rerouteNo="0" devices="tripinfo_flow04.3" vType="CarA" speedFactor="1.04" vaporized=""/>
    <tripinfo id="flow01.3" depart="48.00" departLane="n_t_0" departPos="5.10" departSpeed="0.00" departDelay="1.89" arrival="110.00" arrivalLane="t_s_0" arrivalPos="136.25" arrivalSpeed="14.24" duration="62.00" routeLength="294.90" waitingTime="29.00" waitingCount="1" stopTime="0.00" timeLoss="41.33" rerouteNo="0" devices="tripinfo_flow01.3" vType="CarA" speedFactor="1.05" vaporized=""/>
    <tripinfo id="flow01.4" depart="51.00" departLane="n_t_0" departPos="5.10" departSpeed="0.00" departDelay="3.30" arrival="112.00" arrivalLane="t_s_0" arrivalPos="136.25" arrivalSpeed="13.19" duration="61.00" routeLength="294.90" waitingTime="27.00" waitingCount="1" stopTime="0.00" timeLoss="38.66" rerouteNo="0" devices="tripinfo_flow01.4" vType="CarA" speedFactor="0.98" vaporized=""/>
    <tripinfo id="flow11.4" depart="76.00" departLane="e_t_0" departPos="5.10" departSpeed="0.00" departDelay="0.99" arrival="118.00" arrivalLane="t_s_0" arrivalPos="136.25" arrivalSpeed="12.70" duration="42.00" routeLength="279.21" waitingTime="13.00" waitingCount="1" stopTime="0.00" timeLoss="20.38" rerouteNo="0" devices="tripinfo_flow11.4" vType="CarA" speedFactor="0.98" vaporized=""/>
    <tripinfo id="flow09.8" depart="79.00" departLane="w_t_0" departPos="5.10" departSpeed="0.00" departDelay="0.85" arrival="118.00" arrivalLane="t_n_0" arrivalPos="136.25" arrivalSpeed="12.88" duration="39.00" routeLength="279.21" waitingTime="10.00" waitingCount="1" stopTime="0.00" timeLoss="17.57" rerouteNo="0" devices="tripinfo_flow09.8" vType="CarA" speedFactor="0.98" vaporized=""/>
    <tripinfo id="flow06.1" depart="80.00" departLane="s_t_0" departPos="5.10" departSpeed="0.00" departDelay="0.28" arrival="119.00" arrivalLane="t_e_0" arrivalPos="136.25" arrivalSpeed="12.94" duration="39.00" routeLength="293.40" waitingTime="8.00" waitingCount="1" stopTime="0.00" timeLoss="15.79" rerouteNo="0" devices="tripinfo_flow06.1" vType="CarA" speedFactor="0.94" vaporized=""/>
    <tripinfo id="flow03.3" depart="91.00" departLane="n_t_0" departPos="5.10" departSpeed="0.00" departDelay="0.03" arrival="127.00" arrivalLane="t_e_0" arrivalPos="136.25" arrivalSpeed="13.72" duration="36.00" routeLength="279.21" waitingTime="7.00" waitingCount="1" stopTime="0.00" timeLoss="15.69" rerouteNo="0" devices="tripinfo_flow03.3" vType="CarA" speedFactor="1.06" vaporized=""/>
    <tripinfo id="flow04.4" depart="54.00" departLane="s_t_0" departPos="5.10" departSpeed="0.00" departDelay="0.74" arrival="129.00" arrivalLane="t_n_0" arrivalPos="136.25" arrivalSpeed="12.49" duration="75.00" routeLength="294.90" waitingTime="38.00" waitingCount="2" stopTime="0.00" timeLoss="53.14" rerouteNo="0" devices="tripinfo_flow04.4" vType="CarA" speedFactor="0.98" vaporized=""/>
    <tripinfo id="flow01.5" depart="59.00" departLane="n_t_0" departPos="5.10" departSpeed="0.00" departDelay="0.52" arrival="129.00" arrivalLane="t_s_0" arrivalPos="136.25" arrivalSpeed="13.00" duration="70.00" routeLength="294.90" waitingTime="34.00" waitingCount="2" stopTime="0.00" timeLoss="48.01" rerouteNo="0" devices="tripinfo_flow01.5" vType="CarA" speedFactor="0.97" vaporized=""/>
    <tripinfo id="flow04.5" depart="59.00" departLane="s_t_0" departPos="5.10" departSpeed="0.00" departDelay="0.59" arrival="131.00" arrivalLane="t_n_0" arrivalPos="136.25" arrivalSpeed="13.66" duration="72.00" routeLength="294.90" waitingTime="34.00" waitingCount="2" stopTime="0.00" timeLoss="51.51" rerouteNo="0" devices="tripinfo_flow04.5" vType="CarA" speedFactor="1.06" vaporized=""/>
    <tripinfo id="flow01.6" depart="99.00" departLane="n_t_0" departPos="5.10" departSpeed="0.00" departDelay="0.81" arrival="131.00" arrivalLane="t_s_0" arrivalPos="136.25" arrivalSpeed="16.25" duration="32.00" routeLength="294.90" waitingTime="1.00" waitingCount="1" stopTime="0.00" timeLoss="14.37" rerouteNo="0" devices="tripinfo_flow01.6" vType="CarA" speedFactor="1.25" vaporized=""/>
    <tripinfo id="flow04.6" depart="74.00" departLane="s_t_0" departPos="5.10" departSpeed="0.00" departDelay="0.71" arrival="133.00" arrivalLane="t_n_0" arrivalPos="136.25" arrivalSpeed="13.24" duration="59.00" routeLength="294.90" waitingTime="18.00" waitingCount="2" stopTime="0.00" timeLoss="37.82" rerouteNo="0" devices="tripinfo_flow04.6" vType="CarA" speedFactor="1.01" vaporized=""/>
    <tripinfo id="flow01.7" depart="105.00" departLane="n_t_0" departPos="5.10" departSpeed="0.00" departDelay="0.26" arrival="134.00" arrivalLane="t_s_0" arrivalPos="136.25" arrivalSpeed="12.19" duration="29.00" routeLength="294.90" waitingTime="0.00" waitingCount="0" stopTime="0.00" timeLoss="5.68" rerouteNo="0" devices="tripinfo_flow01.7" vType="CarA" speedFactor="0.94" vaporized=""/>
    <tripinfo id="flow05.3" depart="108.00" departLane="s_t_0" departPos="5.10" departSpeed="0.00" departDelay="0.58" arrival="136.00" arrivalLane="t_w_0" arrivalPos="136.25" arrivalSpeed="11.99" duration="28.00" routeLength="279.21" waitingTime="0.00" waitingCount="0" stopTime="0.00" timeLoss="5.00" rerouteNo="0" devices="tripinfo_flow05.3" vType="CarA" speedFactor="0.95" vaporized=""/>
    <tripinfo id="flow04.7" depart="87.00" departLane="s_t_0" departPos="5.10" departSpeed="0.00" departDelay="0.86" arrival="137.00" arrivalLane="t_n_0" arrivalPos="136.25" arrivalSpeed="11.02" duration="50.00" routeLength="294.90" waitingTime="9.00" waitingCount="1" stopTime="0.00" timeLoss="25.44" rerouteNo="0" devices="tripinfo_flow04.7" vType="CarA" speedFactor="0.89" vaporized=""/>
    <tripinfo id="flow04.8" depart="99.00" departLane="s_t_0" departPos="5.10" departSpeed="0.00" departDelay="0.15" arrival="138.00" arrivalLane="t_n_0" arrivalPos="136.25" arrivalSpeed="14.36" duration="39.00" routeLength="294.90" waitingTime="7.00" waitingCount="1" stopTime="0.00" timeLoss="19.51" rerouteNo="0" devices="tripinfo_flow04.8" vType="CarA" speedFactor="1.09" vaporized=""/>
    <tripinfo id="flow05.4" depart="113.00" departLane="s_t_0" departPos="5.10" departSpeed="0.00" departDelay="0.66" arrival="138.00" arrivalLane="t_w_0" arrivalPos="136.25" arrivalSpeed="14.27" duration="25.00" routeLength="279.21" waitingTime="0.00" waitingCount="0" stopTime="0.00" timeLoss="4.47" rerouteNo="0" devices="tripinfo_flow05.4" vType="CarA" speedFactor="1.03" vaporized=""/>
    <tripinfo id="flow02.0" depart="33.00" departLane="n_t_0" departPos="5.10" departSpeed="0.00" departDelay="0.26" arrival="146.00" arrivalLane="t_w_0" arrivalPos="136.25" arrivalSpeed="15.04" duration="113.00" routeLength="293.40" waitingTime="85.00" waitingCount="1" stopTime="0.00" timeLoss="93.63" rerouteNo="0" devices="tripinfo_flow02.0" vType="CarA" speedFactor="1.12" vaporized=""/>
    <tripinfo id="flow11.5" depart="113.00" departLane="e_t_0" departPos="5.10" departSpeed="0.00" departDelay="0.90" arrival="147.00" arrivalLane="t_s_0" arrivalPos="136.25" arrivalSpeed="13.59" duration="34.00" routeLength="279.21" waitingTime="3.00" waitingCount="1" stopTime="0.00" timeLoss="12.38" rerouteNo="0" devices="tripinfo_flow11.5" vType="CarA" speedFactor="1.00" vaporized=""/>
    <tripinfo id="flow09.9" depart="115.00" departLane="w_t_0" departPos="5.10" departSpeed="0.00" departDelay="3.46" arrival="148.00" arrivalLane="t_n_0" arrivalPos="136.25" arrivalSpeed="12.13" duration="33.00" routeLength="279.21" waitingTime="2.00" waitingCount="1" stopTime="0.00" timeLoss="9.41" rerouteNo="0" devices="tripinfo_flow09.9" vType="CarA" speedFactor="0.89" vaporized=""/>
    <tripinfo id="flow11.6" depart="122.00" departLane="e_t_0" departPos="5.10" departSpeed="0.00" departDelay="0.46" arrival="149.00" arrivalLane="t_s_0" arrivalPos="136.25" arrivalSpeed="13.75" duration="27.00" routeLength="279.21" waitingTime="0.00" waitingCount="0" stopTime="0.00" timeLoss="6.19" rerouteNo="0" devices="tripinfo_flow11.6" vType="CarA" speedFactor="1.00" vaporized=""/>
    <tripinfo id="flow02.1" depart="45.00" departLane="n_t_0" departPos="5.10" departSpeed="0.00" departDelay="2.81" arrival="150.00" arrivalLane="t_w_0" arrivalPos="136.25" arrivalSpeed="13.27" duration="105.00" routeLength="293.40" waitingTime="73.00" waitingCount="1" stopTime="0.00" timeLoss="82.03" rerouteNo="0" devices="tripinfo_flow02.1" vType="CarA" speedFactor="0.98" vaporized=""/>
    <tripinfo id="flow03.4" depart="130.00" departLane="n_t_0" departPos="5.10" departSpeed="0.00" departDelay="0.77" arrival="156.00" arrivalLane="t_e_0" arrivalPos="136.25" arrivalSpeed="14.90" duration="26.00" routeLength="279.21" waitingTime="0.00" waitingCount="0" stopTime="0.00" timeLoss="6.44" rerouteNo="0" devices="tripinfo_flow03.4" vType="CarA" speedFactor="1.08" vaporized=""/>
    <tripinfo id="flow08.0" depart="19.00" departLane="w_t_0" departPos="5.10" departSpeed="0.00" departDelay="0.18" arrival="157.00" arrivalLane="t_s_0" arrivalPos="136.25" arrivalSpeed="13.61" duration="138.00" routeLength="293.40" waitingTime="109.00" waitingCount="1" stopTime="0.00" timeLoss="116.97" rerouteNo="0" devices="tripinfo_flow08.0" vType="CarA" speedFactor="1.05" vaporized=""/>
    <tripinfo id="flow08.1" depart="73.00" departLane="w_t_0" departPos="5.10" departSpeed="0.00" departDelay="1.23" arrival="159.00" arrivalLane="t_s_0" arrivalPos="136.25" arrivalSpeed="14.30" duration="86.00" routeLength="293.40" waitingTime="56.00" waitingCount="1" stopTime="0.00" timeLoss="66.25" rerouteNo="0" devices="tripinfo_flow08.1" vType="CarA" speedFactor="1.12" vaporized=""/>
    <tripinfo id="flow12.0" depart="16.00" departLane="e_t_0" departPos="5.10" departSpeed="0.00" departDelay="0.92" arrival="160.00" arrivalLane="t_n_0" arrivalPos="136.25" arrivalSpeed="11.52" duration="144.00" routeLength="293.40" waitingTime="110.00" waitingCount="1" stopTime="0.00" timeLoss="117.68" rerouteNo="0" devices="tripinfo_flow12.0" vType="CarA" speedFactor="0.84" vaporized=""/>
    <tripinfo id="flow12.1" depart="18.00" departLane="e_t_0" departPos="5.10" departSpeed="0.00" departDelay="0.38" arrival="161.00" arrivalLane="t_n_0" arrivalPos="136.25" arrivalSpeed="12.72" duration="143.00" routeLength="293.40" waitingTime="110.00" waitingCount="1" stopTime="0.00" timeLoss="123.33" rerouteNo="0" devices="tripinfo_flow12.1" vType="CarA" speedFactor="1.11" vaporized=""/>
    <tripinfo id="flow04.9" depart="120.00" departLane="s_t_0" departPos="5.10" departSpeed="0.00" departDelay="0.49" arrival="166.00" arrivalLane="t_n_0" arrivalPos="136.25" arrivalSpeed="15.13" duration="46.00" routeLength="294.90" waitingTime="17.00" waitingCount="1" stopTime="0.00" timeLoss="27.22" rerouteNo="0" devices="tripinfo_flow04.9" vType="CarA" speedFactor="1.14" vaporized=""/>
    <tripinfo id="flow01.8" depart="116.00" departLane="n_t_0" departPos="5.10" departSpeed="0.00" departDelay="0.40" arrival="168.00" arrivalLane="t_s_0" arrivalPos="136.25" arrivalSpeed="13.17" duration="52.00" routeLength="294.90" waitingTime="20.00" waitingCount="1" stopTime="0.00" timeLoss="29.10" rerouteNo="0" devices="tripinfo_flow01.8" vType="CarA" speedFactor="0.95" vaporized=""/>
    <tripinfo id="flow03.5" depart="138.00" departLane="n_t_0" departPos="5.10" departSpeed="0.00" departDelay="6.65" arrival="169.00" arrivalLane="t_e_0" arrivalPos="136.25" arrivalSpeed="10.56" duration="31.00" routeLength="279.21" waitingTime="0.00" waitingCount="0" stopTime="0.00" timeLoss="5.06" rerouteNo="0" devices="tripinfo_flow03.5" vType="CarA" speedFactor="0.81" vaporized=""/>
    <tripinfo id="flow03.6" depart="144.00" departLane="n_t_0" departPos="5.10" departSpeed="0.00" departDelay="5.83" arrival="171.00" arrivalLane="t_e_0" arrivalPos="136.25" arrivalSpeed="13.95" duration="27.00" routeLength="279.21" waitingTime="0.00" waitingCount="0" stopTime="0.00" timeLoss="7.10" rerouteNo="0" devices="tripinfo_flow03.6" vType="CarA" speedFactor="1.09" vaporized=""/>
    <tripinfo id="flow01.9" depart="133.00" departLane="n_t_0" departPos="5.10" departSpeed="0.00" departDelay="2.35" arrival="172.00" arrivalLane="t_s_0" arrivalPos="136.25" arrivalSpeed="10.68" duration="39.00" routeLength="294.90" waitingTime="5.00" waitingCount="1" stopTime="0.00" timeLoss="12.93" rerouteNo="0" devices="tripinfo_flow01.9" vType="CarA" speedFactor="0.84" vaporized=""/>
    <tripinfo id="flow03.7" depart="147.00" departLane="n_t_0" departPos="5.10" departSpeed="0.00" departDelay="8.20" arrival="176.00" arrivalLane="t_e_0" arrivalPos="136.25" arrivalSpeed="11.52" duration="29.00" routeLength="279.21" waitingTime="0.00" waitingCount="0" stopTime="0.00" timeLoss="4.84" rerouteNo="0" devices="tripinfo_flow03.7" vType="CarA" speedFactor="0.89" vaporized=""/>
    <tripinfo id="flow12.2" depart="19.00" departLane="e_t_0" departPos="5.10" departSpeed="0.00" departDelay="0.12" arrival="177.00" arrivalLane="t_n_0" arrivalPos="136.25" arrivalSpeed="14.95" duration="158.00" routeLength="293.40" waitingTime="120.00" waitingCount="2" stopTime="0.00" timeLoss="137.26" rerouteNo="0" devices="tripinfo_flow12.2" vType="CarA" speedFactor="1.09" vaporized=""/>
    <tripinfo id="flow03.8" depart="150.00" departLane="n_t_0" departPos="5.10" departSpeed="0.00" departDelay="8.08" arrival="177.00" arrivalLane="t_e_0" arrivalPos="136.25" arrivalSpeed="13.67" duration="27.00" routeLength="279.21" waitingTime="0.00" waitingCount="0" stopTime="0.00" timeLoss="6.57" rerouteNo="0" devices="tripinfo_flow03.8" vType="CarA" speedFactor="1.01" vaporized=""/>
    <tripinfo id="flow08.2" depart="91.00" departLane="w_t_0" departPos="5.10" departSpeed="0.00" departDelay="0.33" arrival="178.00" arrivalLane="t_s_0" arrivalPos="136.25" arrivalSpeed="12.14" duration="87.00" routeLength="293.40" waitingTime="51.00" waitingCount="2" stopTime="0.00" timeLoss="64.18" rerouteNo="0" devices="tripinfo_flow08.2" vType="CarA" speedFactor="0.96" vaporized=""/>
    <tripinfo id="flow12.3" depart="33.00" departLane="e_t_0" departPos="5.10" departSpeed="0.00" departDelay="3.52" arrival="180.00" arrivalLane="t_n_0" arrivalPos="136.25" arrivalSpeed="11.65" duration="147.00" routeLength="293.40" waitingTime="108.00" waitingCount="2" stopTime="0.00" timeLoss="123.67" rerouteNo="0" devices="tripinfo_flow12.3" vType="CarA" speedFactor="0.93" vaporized=""/>
    <tripinfo id="flow08.3" depart="142.00" departLane="w_t_0" departPos="5.10" departSpeed="0.00" departDelay="0.48" arrival="180.00" arrivalLane="t_s_0" arrivalPos="136.25" arrivalSpeed="13.52" duration="38.00" routeLength="293.40" waitingTime="7.00" waitingCount="1" stopTime="0.00" timeLoss="16.83" rerouteNo="0" devices="tripinfo_flow08.3" vType="CarA" speedFactor="1.05" vaporized=""/>
    <tripinfo id="flow03.9" depart="153.00" departLane="n_t_0" departPos="5.10" departSpeed="0.00" departDelay="2.85" arrival="182.00" arrivalLane="t_e_0" arrivalPos="136.25" arrivalSpeed="12.30" duration="29.00" routeLength="279.21" waitingTime="0.00" waitingCount="0" stopTime="0.00" timeLoss="5.87" rerouteNo="0" devices="tripinfo_flow03.9" vType="CarA" speedFactor="0.91" vaporized=""/>
    <tripinfo id="flow03.10" depart="156.00" departLane="n_t_0" departPos="5.10" departSpeed="0.00" departDelay="1.91" arrival="184.00" arrivalLane="t_e_0" arrivalPos="136.25" arrivalSpeed="12.67" duration="28.00" routeLength="279.21" waitingTime="0.00" waitingCount="0" stopTime="0.00" timeLoss="6.47" rerouteNo="0" devices="tripinfo_flow03.10" vType="CarA" speedFactor="1.00" vaporized=""/>
    <tripinfo id="flow01.10" depart="136.00" departLane="n_t_0" departPos="5.10" departSpeed="0.00" departDelay="4.45" arrival="187.00" arrivalLane="t_s_0" arrivalPos="136.25" arrivalSpeed="15.62" duration="51.00" routeLength="294.90" waitingTime="16.00" waitingCount="2" stopTime="0.00" timeLoss="32.28" rerouteNo="0" devices="tripinfo_flow01.10" vType="CarA" speedFactor="1.16" vaporized=""/>
    <tripinfo id="flow04.10" depart="155.00" departLane="s_t_0" departPos="5.10" departSpeed="0.00" departDelay="0.30" arrival="188.00" arrivalLane="t_n_0" arrivalPos="136.25" arrivalSpeed="13.40" duration="33.00" routeLength="294.90" waitingTime="1.00" waitingCount="1" stopTime="0.00" timeLoss="11.04" rerouteNo="0" devices="tripinfo_flow04.10" vType="CarA" speedFactor="1.00" vaporized=""/>
    <tripinfo id="flow05.5" depart="158.00" departLane="s_t_0" departPos="5.10" departSpeed="0.00" departDelay="3.76" arrival="189.00" arrivalLane="t_w_0" arrivalPos="136.25" arrivalSpeed="11.28" duration="31.00" routeLength="279.21" waitingTime="0.00" waitingCount="0" stopTime="0.00" timeLoss="4.93" rerouteNo="0" devices="tripinfo_flow05.5" vType="CarA" speedFactor="0.82" vaporized=""/>
    <tripinfo id="flow01.11" depart="141.00" departLane="n_t_0" departPos="5.10" departSpeed="0.00" departDelay="7.43" arrival="192.00" arrivalLane="t_s_0" arrivalPos="136.25" arrivalSpeed="11.11" duration="51.00" routeLength="294.90" waitingTime="12.00" waitingCount="1" stopTime="0.00" timeLoss="25.50" rerouteNo="0" devices="tripinfo_flow01.11" vType="CarA" speedFactor="0.84" vaporized=""/>
    <tripinfo id="flow03.11" depart="165.00" departLane="n_t_0" departPos="5.10" departSpeed="0.00" departDelay="0.05" arrival="192.00" arrivalLane="t_e_0" arrivalPos="136.25" arrivalSpeed="12.78" duration="27.00" routeLength="279.21" waitingTime="0.00" waitingCount="0" stopTime="0.00" timeLoss="5.12" rerouteNo="0" devices="tripinfo_flow03.11" vType="CarA" speedFactor="0.98" vaporized=""/>