<?xml version="1.0" encoding="UTF-8"?>

<!-- generated on 2024-06-10 16:00:22 by Eclipse SUMO libsumo Version 1.20.0
<configuration xmlns:xsi="http://www.w3.org/2001/XMLSchema-instance" xsi:noNamespaceSchemaLocation="http://sumo.dlr.de/xsd/libsumoConfiguration.xsd">

    <input>
        <net-file value="sumo_rl/nets/2way-single-intersection/single-intersection-2.net.xml"/>
        <route-files value="sumo_rl/nets/2way-single-intersection/single-intersection-vhvh.rou.xml"/>
    </input>

    <output>
        <tripinfo-output value="outputs/l0.0001-normal-untrained\tripinfos_20240610160022.xml"/>
    </output>

    <processing>
        <time-to-teleport value="-1"/>
        <waiting-time-memory value="1000"/>
        <max-depart-delay value="-1"/>
    </processing>

    <random_number>
        <random value="true"/>
    </random_number>

</configuration>
-->

<tripinfos xmlns:xsi="http://www.w3.org/2001/XMLSchema-instance" xsi:noNamespaceSchemaLocation="http://sumo.dlr.de/xsd/tripinfo_file.xsd">
    <tripinfo id="flow07.0" depart="1.00" departLane="w_t_0" departPos="5.10" departSpeed="0.00" departDelay="0.76" arrival="26.00" arrivalLane="t_e_0" arrivalPos="136.25" arrivalSpeed="13.70" duration="25.00" routeLength="294.90" waitingTime="0.00" waitingCount="0" stopTime="0.00" timeLoss="3.88" rerouteNo="0" devices="tripinfo_flow07.0" vType="CarA" speedFactor="1.03" vaporized=""/>
    <tripinfo id="flow10.0" depart="9.00" departLane="e_t_0" departPos="5.10" departSpeed="0.00" departDelay="0.62" arrival="32.00" arrivalLane="t_w_0" arrivalPos="136.25" arrivalSpeed="15.24" duration="23.00" routeLength="294.90" waitingTime="0.00" waitingCount="0" stopTime="0.00" timeLoss="4.08" rerouteNo="0" devices="tripinfo_flow10.0" vType="CarA" speedFactor="1.16" vaporized=""/>
    <tripinfo id="flow07.1" depart="11.00" departLane="w_t_0" departPos="5.10" departSpeed="0.00" departDelay="0.41" arrival="35.00" arrivalLane="t_e_0" arrivalPos="136.25" arrivalSpeed="14.42" duration="24.00" routeLength="294.90" waitingTime="0.00" waitingCount="0" stopTime="0.00" timeLoss="4.24" rerouteNo="0" devices="tripinfo_flow07.1" vType="CarA" speedFactor="1.08" vaporized=""/>
    <tripinfo id="flow07.2" depart="14.00" departLane="w_t_0" departPos="5.10" departSpeed="0.00" departDelay="2.50" arrival="38.00" arrivalLane="t_e_0" arrivalPos="136.25" arrivalSpeed="14.52" duration="24.00" routeLength="294.90" waitingTime="0.00" waitingCount="0" stopTime="0.00" timeLoss="4.34" rerouteNo="0" devices="tripinfo_flow07.2" vType="CarA" speedFactor="1.09" vaporized=""/>
    <tripinfo id="flow10.1" depart="12.00" departLane="e_t_0" departPos="5.10" departSpeed="0.00" departDelay="3.15" arrival="39.00" arrivalLane="t_w_0" arrivalPos="136.25" arrivalSpeed="13.30" duration="27.00" routeLength="294.90" waitingTime="0.00" waitingCount="0" stopTime="0.00" timeLoss="4.08" rerouteNo="0" devices="tripinfo_flow10.1" vType="CarA" speedFactor="0.97" vaporized=""/>
    <tripinfo id="flow11.0" depart="18.00" departLane="e_t_0" departPos="5.10" departSpeed="0.00" departDelay="0.20" arrival="43.00" arrivalLane="t_s_0" arrivalPos="136.25" arrivalSpeed="14.76" duration="25.00" routeLength="279.21" waitingTime="0.00" waitingCount="0" stopTime="0.00" timeLoss="5.57" rerouteNo="0" devices="tripinfo_flow11.0" vType="CarA" speedFactor="1.11" vaporized=""/>
    <tripinfo id="flow07.3" depart="21.00" departLane="w_t_0" departPos="5.10" departSpeed="0.00" departDelay="0.39" arrival="46.00" arrivalLane="t_e_0" arrivalPos="136.25" arrivalSpeed="13.53" duration="25.00" routeLength="294.90" waitingTime="0.00" waitingCount="0" stopTime="0.00" timeLoss="4.30" rerouteNo="0" devices="tripinfo_flow07.3" vType="CarA" speedFactor="1.06" vaporized=""/>
    <tripinfo id="flow11.1" depart="23.00" departLane="e_t_0" departPos="5.10" departSpeed="0.00" departDelay="1.99" arrival="49.00" arrivalLane="t_s_0" arrivalPos="136.25" arrivalSpeed="13.11" duration="26.00" routeLength="279.21" waitingTime="0.00" waitingCount="0" stopTime="0.00" timeLoss="4.69" rerouteNo="0" devices="tripinfo_flow11.1" vType="CarA" speedFactor="1.03" vaporized=""/>
    <tripinfo id="flow07.4" depart="29.00" departLane="w_t_0" departPos="5.10" departSpeed="0.00" departDelay="0.38" arrival="60.00" arrivalLane="t_e_0" arrivalPos="136.25" arrivalSpeed="10.53" duration="31.00" routeLength="294.90" waitingTime="0.00" waitingCount="0" stopTime="0.00" timeLoss="3.98" rerouteNo="0" devices="tripinfo_flow07.4" vType="CarA" speedFactor="0.81" vaporized=""/>
    <tripinfo id="flow07.5" depart="32.00" departLane="w_t_0" departPos="5.10" departSpeed="0.00" departDelay="3.02" arrival="64.00" arrivalLane="t_e_0" arrivalPos="136.25" arrivalSpeed="10.41" duration="32.00" routeLength="294.90" waitingTime="0.00" waitingCount="0" stopTime="0.00" timeLoss="4.27" rerouteNo="0" devices="tripinfo_flow07.5" vType="CarA" speedFactor="0.79" vaporized=""/>
    <tripinfo id="flow07.6" depart="35.00" departLane="w_t_0" departPos="5.10" departSpeed="0.00" departDelay="4.62" arrival="65.00" arrivalLane="t_e_0" arrivalPos="136.25" arrivalSpeed="11.83" duration="30.00" routeLength="294.90" waitingTime="0.00" waitingCount="0" stopTime="0.00" timeLoss="5.85" rerouteNo="0" devices="tripinfo_flow07.6" vType="CarA" speedFactor="0.88" vaporized=""/>
    <tripinfo id="flow10.2" depart="37.00" departLane="e_t_0" departPos="5.10" departSpeed="0.00" departDelay="0.96" arrival="65.00" arrivalLane="t_w_0" arrivalPos="136.25" arrivalSpeed="11.90" duration="28.00" routeLength="294.90" waitingTime="0.00" waitingCount="0" stopTime="0.00" timeLoss="4.65" rerouteNo="0" devices="tripinfo_flow10.2" vType="CarA" speedFactor="0.93" vaporized=""/>
    <tripinfo id="flow07.7" depart="39.00" departLane="w_t_0" departPos="5.10" departSpeed="0.00" departDelay="0.58" arrival="67.00" arrivalLane="t_e_0" arrivalPos="136.25" arrivalSpeed="13.67" duration="28.00" routeLength="294.90" waitingTime="0.00" waitingCount="0" stopTime="0.00" timeLoss="8.10" rerouteNo="0" devices="tripinfo_flow07.7" vType="CarA" speedFactor="1.08" vaporized=""/>
    <tripinfo id="flow10.3" depart="42.00" departLane="e_t_0" departPos="5.10" departSpeed="0.00" departDelay="0.87" arrival="67.00" arrivalLane="t_w_0" arrivalPos="136.25" arrivalSpeed="14.05" duration="25.00" routeLength="294.90" waitingTime="0.00" waitingCount="0" stopTime="0.00" timeLoss="4.99" rerouteNo="0" devices="tripinfo_flow10.3" vType="CarA" speedFactor="1.09" vaporized=""/>
    <tripinfo id="flow07.8" depart="42.00" departLane="w_t_0" departPos="5.10" departSpeed="0.00" departDelay="0.54" arrival="69.00" arrivalLane="t_e_0" arrivalPos="136.25" arrivalSpeed="15.11" duration="27.00" routeLength="294.90" waitingTime="0.00" waitingCount="0" stopTime="0.00" timeLoss="7.97" rerouteNo="0" devices="tripinfo_flow07.8" vType="CarA" speedFactor="1.16" vaporized=""/>
    <tripinfo id="flow10.4" depart="47.00" departLane="e_t_0" departPos="5.10" departSpeed="0.00" departDelay="0.72" arrival="71.00" arrivalLane="t_w_0" arrivalPos="136.25" arrivalSpeed="15.11" duration="24.00" routeLength="294.90" waitingTime="0.00" waitingCount="0" stopTime="0.00" timeLoss="4.22" rerouteNo="0" devices="tripinfo_flow10.4" vType="CarA" speedFactor="1.10" vaporized=""/>
    <tripinfo id="flow09.0" depart="47.00" departLane="w_t_0" departPos="5.10" departSpeed="0.00" departDelay="0.71" arrival="76.00" arrivalLane="t_n_0" arrivalPos="136.25" arrivalSpeed="11.72" duration="29.00" routeLength="279.21" waitingTime="0.00" waitingCount="0" stopTime="0.00" timeLoss="5.48" rerouteNo="0" devices="tripinfo_flow09.0" vType="CarA" speedFactor="0.91" vaporized=""/>
    <tripinfo id="flow03.0" depart="13.00" departLane="n_t_0" departPos="5.10" departSpeed="0.00" departDelay="0.57" arrival="78.00" arrivalLane="t_e_0" arrivalPos="136.25" arrivalSpeed="14.07" duration="65.00" routeLength="279.21" waitingTime="37.00" waitingCount="1" stopTime="0.00" timeLoss="45.08" rerouteNo="0" devices="tripinfo_flow03.0" vType="CarA" speedFactor="1.05" vaporized=""/>
    <tripinfo id="flow09.1" depart="50.00" departLane="w_t_0" departPos="5.10" departSpeed="0.00" departDelay="0.62" arrival="78.00" arrivalLane="t_n_0" arrivalPos="136.25" arrivalSpeed="14.52" duration="28.00" routeLength="279.21" waitingTime="0.00" waitingCount="0" stopTime="0.00" timeLoss="7.50" rerouteNo="0" devices="tripinfo_flow09.1" vType="CarA" speedFactor="1.08" vaporized=""/>
    <tripinfo id="flow08.0" depart="4.00" departLane="w_t_0" departPos="5.10" departSpeed="0.00" departDelay="3.64" arrival="80.00" arrivalLane="t_s_0" arrivalPos="136.25" arrivalSpeed="12.57" duration="76.00" routeLength="293.40" waitingTime="45.00" waitingCount="1" stopTime="0.00" timeLoss="53.58" rerouteNo="0" devices="tripinfo_flow08.0" vType="CarA" speedFactor="0.99" vaporized=""/>
    <tripinfo id="flow05.0" depart="5.00" departLane="s_t_0" departPos="5.10" departSpeed="0.00" departDelay="0.36" arrival="80.00" arrivalLane="t_w_0" arrivalPos="136.25" arrivalSpeed="12.03" duration="75.00" routeLength="279.21" waitingTime="43.00" waitingCount="1" stopTime="0.00" timeLoss="52.01" rerouteNo="0" devices="tripinfo_flow05.0" vType="CarA" speedFactor="0.93" vaporized=""/>
    <tripinfo id="flow09.2" depart="53.00" departLane="w_t_0" departPos="5.10" departSpeed="0.00" departDelay="0.01" arrival="80.00" arrivalLane="t_n_0" arrivalPos="136.25" arrivalSpeed="13.23" duration="27.00" routeLength="279.21" waitingTime="0.00" waitingCount="0" stopTime="0.00" timeLoss="5.92" rerouteNo="0" devices="tripinfo_flow09.2" vType="CarA" speedFactor="1.03" vaporized=""/>
    <tripinfo id="flow03.1" depart="16.00" departLane="n_t_0" departPos="5.10" departSpeed="0.00" departDelay="1.81" arrival="81.00" arrivalLane="t_e_0" arrivalPos="136.25" arrivalSpeed="14.26" duration="65.00" routeLength="279.21" waitingTime="34.00" waitingCount="1" stopTime="0.00" timeLoss="44.49" rerouteNo="0" devices="tripinfo_flow03.1" vType="CarA" speedFactor="1.05" vaporized=""/>
    <tripinfo id="flow05.1" depart="14.00" departLane="s_t_0" departPos="5.10" departSpeed="0.00" departDelay="0.39" arrival="82.00" arrivalLane="t_w_0" arrivalPos="136.25" arrivalSpeed="13.73" duration="68.00" routeLength="279.21" waitingTime="36.00" waitingCount="1" stopTime="0.00" timeLoss="46.56" rerouteNo="0" devices="tripinfo_flow05.1" vType="CarA" speedFactor="1.00" vaporized=""/>
    <tripinfo id="flow08.1" depart="17.00" departLane="w_t_0" departPos="5.10" departSpeed="0.00" departDelay="3.92" arrival="83.00" arrivalLane="t_s_0" arrivalPos="136.25" arrivalSpeed="13.29" duration="66.00" routeLength="293.40" waitingTime="31.00" waitingCount="1" stopTime="0.00" timeLoss="43.07" rerouteNo="0" devices="tripinfo_flow08.1" vType="CarA" speedFactor="0.98" vaporized=""/>
    <tripinfo id="flow07.9" depart="62.00" departLane="w_t_0" departPos="5.10" departSpeed="0.00" departDelay="0.28" arrival="89.00" arrivalLane="t_e_0" arrivalPos="136.25" arrivalSpeed="12.89" duration="27.00" routeLength="294.90" waitingTime="0.00" waitingCount="0" stopTime="0.00" timeLoss="4.13" rerouteNo="0" devices="tripinfo_flow07.9" vType="CarA" speedFactor="0.94" vaporized=""/>
    <tripinfo id="flow10.5" depart="66.00" departLane="e_t_0" departPos="5.10" departSpeed="0.00" departDelay="0.97" arrival="89.00" arrivalLane="t_w_0" arrivalPos="136.25" arrivalSpeed="15.08" duration="23.00" routeLength="294.90" waitingTime="0.00" waitingCount="0" stopTime="0.00" timeLoss="4.04" rerouteNo="0" devices="tripinfo_flow10.5" vType="CarA" speedFactor="1.12" vaporized=""/>
    <tripinfo id="flow07.10" depart="67.00" departLane="w_t_0" departPos="5.10" departSpeed="0.00" departDelay="0.69" arrival="91.00" arrivalLane="t_e_0" arrivalPos="136.25" arrivalSpeed="15.86" duration="24.00" routeLength="294.90" waitingTime="0.00" waitingCount="0" stopTime="0.00" timeLoss="5.54" rerouteNo="0" devices="tripinfo_flow07.10" vType="CarA" speedFactor="1.19" vaporized=""/>
    <tripinfo id="flow11.2" depart="61.00" departLane="e_t_0" departPos="5.10" departSpeed="0.00" departDelay="0.92" arrival="93.00" arrivalLane="t_s_0" arrivalPos="136.25" arrivalSpeed="10.51" duration="32.00" routeLength="279.21" waitingTime="0.00" waitingCount="0" stopTime="0.00" timeLoss="5.16" rerouteNo="0" devices="tripinfo_flow11.2" vType="CarA" speedFactor="0.79" vaporized=""/>
    <tripinfo id="flow03.2" depart="58.00" departLane="n_t_0" departPos="5.10" departSpeed="0.00" departDelay="0.98" arrival="98.00" arrivalLane="t_e_0" arrivalPos="136.25" arrivalSpeed="14.74" duration="40.00" routeLength="279.21" waitingTime="10.00" waitingCount="1" stopTime="0.00" timeLoss="20.50" rerouteNo="0" devices="tripinfo_flow03.2" vType="CarA" speedFactor="1.07" vaporized=""/>
    <tripinfo id="flow02.0" depart="39.00" departLane="n_t_0" departPos="5.10" departSpeed="0.00" departDelay="1.85" arrival="99.00" arrivalLane="t_w_0" arrivalPos="136.25" arrivalSpeed="15.32" duration="60.00" routeLength="293.40" waitingTime="30.00" waitingCount="1" stopTime="0.00" timeLoss="39.73" rerouteNo="0" devices="tripinfo_flow02.0" vType="CarA" speedFactor="1.10" vaporized=""/>
    <tripinfo id="flow02.1" depart="61.00" departLane="n_t_0" departPos="5.10" departSpeed="0.00" departDelay="1.16" arrival="101.00" arrivalLane="t_w_0" arrivalPos="136.25" arrivalSpeed="13.81" duration="40.00" routeLength="293.40" waitingTime="9.00" waitingCount="1" stopTime="0.00" timeLoss="18.98" rerouteNo="0" devices="tripinfo_flow02.1" vType="CarA" speedFactor="1.04" vaporized=""/>
    <tripinfo id="flow03.3" depart="62.00" departLane="n_t_0" departPos="5.10" departSpeed="0.00" departDelay="1.13" arrival="102.00" arrivalLane="t_e_0" arrivalPos="136.25" arrivalSpeed="12.01" duration="40.00" routeLength="279.21" waitingTime="8.00" waitingCount="1" stopTime="0.00" timeLoss="16.70" rerouteNo="0" devices="tripinfo_flow03.3" vType="CarA" speedFactor="0.93" vaporized=""/>
    <tripinfo id="flow02.2" depart="79.00" departLane="n_t_0" departPos="5.10" departSpeed="0.00" departDelay="2.73" arrival="105.00" arrivalLane="t_w_0" arrivalPos="136.25" arrivalSpeed="13.48" duration="26.00" routeLength="293.40" waitingTime="0.00" waitingCount="0" stopTime="0.00" timeLoss="4.67" rerouteNo="0" devices="tripinfo_flow02.2" vType="CarA" speedFactor="1.05" vaporized=""/>
    <tripinfo id="flow06.0" depart="28.00" departLane="s_t_0" departPos="5.10" departSpeed="0.00" departDelay="6.83" arrival="109.00" arrivalLane="t_e_0" arrivalPos="136.25" arrivalSpeed="13.37" duration="81.00" routeLength="293.40" waitingTime="51.00" waitingCount="1" stopTime="0.00" timeLoss="59.45" rerouteNo="0" devices="tripinfo_flow06.0" vType="CarA" speedFactor="1.01" vaporized=""/>
    <tripinfo id="flow06.1" depart="39.00" departLane="s_t_0" departPos="5.10" departSpeed="0.00" departDelay="2.36" arrival="113.00" arrivalLane="t_e_0" arrivalPos="136.25" arrivalSpeed="11.51" duration="74.00" routeLength="293.40" waitingTime="39.00" waitingCount="1" stopTime="0.00" timeLoss="49.75" rerouteNo="0" devices="tripinfo_flow06.1" vType="CarA" speedFactor="0.91" vaporized=""/>
    <tripinfo id="flow07.11" depart="70.00" departLane="w_t_0" departPos="5.10" departSpeed="0.00" departDelay="2.07" arrival="120.00" arrivalLane="t_e_0" arrivalPos="136.25" arrivalSpeed="13.59" duration="50.00" routeLength="294.90" waitingTime="19.00" waitingCount="1" stopTime="0.00" timeLoss="28.56" rerouteNo="0" devices="tripinfo_flow07.11" vType="CarA" speedFactor="1.01" vaporized=""/>
    <tripinfo id="flow10.6" depart="72.00" departLane="e_t_0" departPos="5.10" departSpeed="0.00" departDelay="0.76" arrival="121.00" arrivalLane="t_w_0" arrivalPos="136.25" arrivalSpeed="12.42" duration="49.00" routeLength="294.90" waitingTime="16.00" waitingCount="1" stopTime="0.00" timeLoss="24.98" rerouteNo="0" devices="tripinfo_flow10.6" vType="CarA" speedFactor="0.91" vaporized=""/>
    <tripinfo id="flow10.7" depart="75.00" departLane="e_t_0" departPos="5.10" departSpeed="0.00" departDelay="3.65" arrival="123.00" arrivalLane="t_w_0" arrivalPos="136.25" arrivalSpeed="13.49" duration="48.00" routeLength="294.90" waitingTime="14.00" waitingCount="1" stopTime="0.00" timeLoss="26.78" rerouteNo="0" devices="tripinfo_flow10.7" vType="CarA" speedFactor="1.04" vaporized=""/>
    <tripinfo id="flow03.4" depart="76.00" departLane="n_t_0" departPos="5.10" departSpeed="0.00" departDelay="0.77" arrival="127.00" arrivalLane="t_e_0" arrivalPos="136.25" arrivalSpeed="15.52" duration="51.00" routeLength="279.21" waitingTime="23.00" waitingCount="1" stopTime="0.00" timeLoss="32.45" rerouteNo="0" devices="tripinfo_flow03.4" vType="CarA" speedFactor="1.12" vaporized=""/>
    <tripinfo id="flow03.5" depart="87.00" departLane="n_t_0" departPos="5.10" departSpeed="0.00" departDelay="0.69" arrival="130.00" arrivalLane="t_e_0" arrivalPos="136.25" arrivalSpeed="14.80" duration="43.00" routeLength="279.21" waitingTime="15.00" waitingCount="1" stopTime="0.00" timeLoss="24.10" rerouteNo="0" devices="tripinfo_flow03.5" vType="CarA" speedFactor="1.16" vaporized=""/>
    <tripinfo id="flow02.3" depart="102.00" departLane="n_t_0" departPos="5.10" departSpeed="0.00" departDelay="1.03" arrival="132.00" arrivalLane="t_w_0" arrivalPos="136.25" arrivalSpeed="11.75" duration="30.00" routeLength="293.40" waitingTime="0.00" waitingCount="0" stopTime="0.00" timeLoss="5.97" rerouteNo="0" devices="tripinfo_flow02.3" vType="CarA" speedFactor="0.93" vaporized=""/>
    <tripinfo id="flow04.0" depart="18.00" departLane="s_t_0" departPos="5.10" departSpeed="0.00" departDelay="0.56" arrival="140.00" arrivalLane="t_n_0" arrivalPos="136.25" arrivalSpeed="12.99" duration="122.00" routeLength="294.90" waitingTime="90.00" waitingCount="1" stopTime="0.00" timeLoss="100.21" rerouteNo="0" devices="tripinfo_flow04.0" vType="CarA" speedFactor="0.99" vaporized=""/>
    <tripinfo id="flow05.2" depart="30.00" departLane="s_t_0" departPos="5.10" departSpeed="0.00" departDelay="2.67" arrival="140.00" arrivalLane="t_w_0" arrivalPos="136.25" arrivalSpeed="12.95" duration="110.00" routeLength="279.21" waitingTime="75.00" waitingCount="2" stopTime="0.00" timeLoss="87.36" rerouteNo="0" devices="tripinfo_flow05.2" vType="CarA" speedFactor="0.95" vaporized=""/>
    <tripinfo id="flow06.2" depart="66.00" departLane="s_t_0" departPos="5.10" departSpeed="0.00" departDelay="4.98" arrival="140.00" arrivalLane="t_e_0" arrivalPos="136.25" arrivalSpeed="13.27" duration="74.00" routeLength="293.40" waitingTime="37.00" waitingCount="2" stopTime="0.00" timeLoss="51.54" rerouteNo="0" devices="tripinfo_flow06.2" vType="CarA" speedFactor="0.98" vaporized=""/>
    <tripinfo id="flow04.1" depart="22.00" departLane="s_t_0" departPos="5.10" departSpeed="0.00" departDelay="0.61" arrival="142.00" arrivalLane="t_n_0" arrivalPos="136.25" arrivalSpeed="13.65" duration="120.00" routeLength="294.90" waitingTime="89.00" waitingCount="1" stopTime="0.00" timeLoss="99.35" rerouteNo="0" devices="tripinfo_flow04.1" vType="CarA" speedFactor="1.06" vaporized=""/>
    <tripinfo id="flow05.3" depart="61.00" departLane="s_t_0" departPos="5.10" departSpeed="0.00" departDelay="0.48" arrival="142.00" arrivalLane="t_w_0" arrivalPos="136.25" arrivalSpeed="13.58" duration="81.00" routeLength="279.21" waitingTime="49.00" waitingCount="1" stopTime="0.00" timeLoss="59.79" rerouteNo="0" devices="tripinfo_flow05.3" vType="CarA" speedFactor="1.02" vaporized=""/>
    <tripinfo id="flow06.3" depart="75.00" departLane="s_t_0" departPos="5.10" departSpeed="0.00" departDelay="0.52" arrival="142.00" arrivalLane="t_e_0" arrivalPos="136.25" arrivalSpeed="12.56" duration="67.00" routeLength="293.40" waitingTime="30.00" waitingCount="2" stopTime="0.00" timeLoss="44.21" rerouteNo="0" devices="tripinfo_flow06.3" vType="CarA" speedFactor="0.96" vaporized=""/>
    <tripinfo id="flow05.4" depart="90.00" departLane="s_t_0" departPos="5.10" departSpeed="0.00" departDelay="0.18" arrival="143.00" arrivalLane="t_w_0" arrivalPos="136.25" arrivalSpeed="14.45" duration="53.00" routeLength="279.21" waitingTime="22.00" waitingCount="1" stopTime="0.00" timeLoss="34.20" rerouteNo="0" devices="tripinfo_flow05.4" vType="CarA" speedFactor="1.13" vaporized=""/>
    <tripinfo id="flow04.2" depart="25.00" departLane="s_t_0" departPos="5.10" departSpeed="0.00" departDelay="3.60" arrival="144.00" arrivalLane="t_n_0" arrivalPos="136.25" arrivalSpeed="13.56" duration="119.00" routeLength="294.90" waitingTime="86.00" waitingCount="1" stopTime="0.00" timeLoss="97.89" rerouteNo="0" devices="tripinfo_flow04.2" vType="CarA" speedFactor="1.05" vaporized=""/>
    <tripinfo id="flow06.4" depart="105.00" departLane="s_t_0" departPos="5.10" departSpeed="0.00" departDelay="3.29" arrival="144.00" arrivalLane="t_e_0" arrivalPos="136.25" arrivalSpeed="13.10" duration="39.00" routeLength="293.40" waitingTime="5.00" waitingCount="1" stopTime="0.00" timeLoss="16.53" rerouteNo="0" devices="tripinfo_flow06.4" vType="CarA" speedFactor="0.99" vaporized=""/>
    <tripinfo id="flow05.5" depart="96.00" departLane="s_t_0" departPos="5.10" departSpeed="0.00" departDelay="0.76" arrival="145.00" arrivalLane="t_w_0" arrivalPos="136.25" arrivalSpeed="16.35" duration="49.00" routeLength="279.21" waitingTime="18.00" waitingCount="1" stopTime="0.00" timeLoss="30.65" rerouteNo="0" devices="tripinfo_flow05.5" vType="CarA" speedFactor="1.18" vaporized=""/>
    <tripinfo id="flow04.3" depart="34.00" departLane="s_t_0" departPos="5.10" departSpeed="0.00" departDelay="0.20" arrival="148.00" arrivalLane="t_n_0" arrivalPos="136.25" arrivalSpeed="10.75" duration="114.00" routeLength="294.90" waitingTime="78.00" waitingCount="1" stopTime="0.00" timeLoss="88.20" rerouteNo="0" devices="tripinfo_flow04.3" vType="CarA" speedFactor="0.85" vaporized=""/>
    <tripinfo id="flow04.4" depart="37.00" departLane="s_t_0" departPos="5.10" departSpeed="0.00" departDelay="0.99" arrival="149.00" arrivalLane="t_n_0" arrivalPos="136.25" arrivalSpeed="12.92" duration="112.00" routeLength="294.90" waitingTime="78.00" waitingCount="1" stopTime="0.00" timeLoss="89.92" rerouteNo="0" devices="tripinfo_flow04.4" vType="CarA" speedFactor="0.97" vaporized=""/>
    <tripinfo id="flow04.17" depart="118.00" departLane="s_t_0" departPos="5.10" departSpeed="0.00" departDelay="0.98" arrival="151.00" arrivalLane="t_n_0" arrivalPos="136.25" arrivalSpeed="13.76" duration="33.00" routeLength="294.90" waitingTime="2.00" waitingCount="1" stopTime="0.00" timeLoss="11.41" rerouteNo="0" devices="tripinfo_flow04.17" vType="CarA" speedFactor="1.00" vaporized=""/>
    <tripinfo id="flow04.5" depart="40.00" departLane="s_t_0" departPos="5.10" departSpeed="0.00" departDelay="1.80" arrival="153.00" arrivalLane="t_n_0" arrivalPos="136.25" arrivalSpeed="13.13" duration="113.00" routeLength="294.90" waitingTime="78.00" waitingCount="1" stopTime="0.00" timeLoss="90.62" rerouteNo="0" devices="tripinfo_flow04.5" vType="CarA" speedFactor="0.97" vaporized=""/>
    <tripinfo id="flow04.6" depart="44.00" departLane="s_t_0" departPos="5.10" departSpeed="0.00" departDelay="0.55" arrival="155.00" arrivalLane="t_n_0" arrivalPos="136.25" arrivalSpeed="14.91" duration="111.00" routeLength="294.90" waitingTime="77.00" waitingCount="1" stopTime="0.00" timeLoss="92.06" rerouteNo="0" devices="tripinfo_flow04.6" vType="CarA" speedFactor="1.16" vaporized=""/>
    <tripinfo id="flow05.6" depart="133.00" departLane="s_t_0" departPos="5.10" departSpeed="0.00" departDelay="0.44" arrival="159.00" arrivalLane="t_w_0" arrivalPos="136.25" arrivalSpeed="13.79" duration="26.00" routeLength="279.21" waitingTime="0.00" waitingCount="0" stopTime="0.00" timeLoss="5.58" rerouteNo="0" devices="tripinfo_flow05.6" vType="CarA" speedFactor="1.02" vaporized=""/>
    <tripinfo id="flow11.3" depart="130.00" departLane="e_t_0" departPos="5.10" departSpeed="0.00" departDelay="0.43" arrival="160.00" arrivalLane="t_s_0" arrivalPos="136.25" arrivalSpeed="12.24" duration="30.00" routeLength="279.21" waitingTime="0.00" waitingCount="0" stopTime="0.00" timeLoss="5.81" rerouteNo="0" devices="tripinfo_flow11.3" vType="CarA" speedFactor="0.89" vaporized=""/>
    <tripinfo id="flow03.6" depart="93.00" departLane="n_t_0" departPos="5.10" departSpeed="0.00" departDelay="0.66" arrival="161.00" arrivalLane="t_e_0" arrivalPos="136.25" arrivalSpeed="11.48" duration="68.00" routeLength="279.21" waitingTime="32.00" waitingCount="2" stopTime="0.00" timeLoss="44.37" rerouteNo="0" devices="tripinfo_flow03.6" vType="CarA" speedFactor="0.90" vaporized=""/>
    <tripinfo id="flow12.0" depart="6.00" departLane="e_t_0" departPos="5.10" departSpeed="0.00" departDelay="0.27" arrival="162.00" arrivalLane="t_n_0" arrivalPos="136.25" arrivalSpeed="12.28" duration="156.00" routeLength="293.40" waitingTime="122.00" waitingCount="1" stopTime="0.00" timeLoss="131.46" rerouteNo="0" devices="tripinfo_flow12.0" vType="CarA" speedFactor="0.90" vaporized=""/>
    <tripinfo id="flow12.1" depart="21.00" departLane="e_t_0" departPos="5.10" departSpeed="0.00" departDelay="0.72" arrival="163.00" arrivalLane="t_n_0" arrivalPos="136.25" arrivalSpeed="14.40" duration="142.00" routeLength="293.40" waitingTime="109.00" waitingCount="1" stopTime="0.00" timeLoss="121.75" rerouteNo="0" devices="tripinfo_flow12.1" vType="CarA" speedFactor="1.07" vaporized=""/>
    <tripinfo id="flow05.7" depart="137.00" departLane="s_t_0" departPos="5.10" departSpeed="0.00" departDelay="0.09" arrival="164.00" arrivalLane="t_w_0" arrivalPos="136.25" arrivalSpeed="12.53" duration="27.00" routeLength="279.21" waitingTime="0.00" waitingCount="0" stopTime="0.00" timeLoss="5.31" rerouteNo="0" devices="tripinfo_flow05.7" vType="CarA" speedFactor="0.97" vaporized=""/>
    <tripinfo id="flow12.2" depart="78.00" departLane="e_t_0" departPos="5.10" departSpeed="0.00" departDelay="0.15" arrival="165.00" arrivalLane="t_n_0" arrivalPos="136.25" arrivalSpeed="15.90" duration="87.00" routeLength="293.40" waitingTime="55.00" waitingCount="1" stopTime="0.00" timeLoss="67.53" rerouteNo="0" devices="tripinfo_flow12.2" vType="CarA" speedFactor="1.15" vaporized=""/>
    <tripinfo id="flow03.7" depart="98.00" departLane="n_t_0" departPos="5.10" departSpeed="0.00" departDelay="2.92" arrival="165.00" arrivalLane="t_e_0" arrivalPos="136.25" arrivalSpeed="11.20" duration="67.00" routeLength="279.21" waitingTime="28.00" waitingCount="2" stopTime="0.00" timeLoss="40.65" rerouteNo="0" devices="tripinfo_flow03.7" vType="CarA" speedFactor="0.81" vaporized=""/>
    <tripinfo id="flow11.4" depart="138.00" departLane="e_t_0" departPos="5.10" departSpeed="0.00" departDelay="0.58" arrival="166.00" arrivalLane="t_s_0" arrivalPos="136.25" arrivalSpeed="11.88" duration="28.00" routeLength="279.21" waitingTime="0.00" waitingCount="0" stopTime="0.00" timeLoss="4.98" rerouteNo="0" devices="tripinfo_flow11.4" vType="CarA" speedFactor="0.90" vaporized=""/>
    <tripinfo id="flow12.3" depart="91.00" departLane="e_t_0" departPos="5.10" departSpeed="0.00" departDelay="0.30" arrival="167.00" arrivalLane="t_n_0" arrivalPos="136.25" arrivalSpeed="13.88" duration="76.00" routeLength="293.40" waitingTime="43.00" waitingCount="1" stopTime="0.00" timeLoss="54.95" rerouteNo="0" devices="tripinfo_flow12.3" vType="CarA" speedFactor="1.06" vaporized=""/>
    <tripinfo id="flow03.8" depart="117.00" departLane="n_t_0" departPos="5.10" departSpeed="0.00" departDelay="1.30" arrival="167.00" arrivalLane="t_e_0" arrivalPos="136.25" arrivalSpeed="12.23" duration="50.00" routeLength="279.21" waitingTime="15.00" waitingCount="1" stopTime="0.00" timeLoss="25.96" rerouteNo="0" devices="tripinfo_flow03.8" vType="CarA" speedFactor="0.88" vaporized=""/>
    <tripinfo id="flow03.9" depart="120.00" departLane="n_t_0" departPos="5.10" departSpeed="0.00" departDelay="1.39" arrival="169.00" arrivalLane="t_e_0" arrivalPos="136.25" arrivalSpeed="14.97" duration="49.00" routeLength="279.21" waitingTime="13.00" waitingCount="1" stopTime="0.00" timeLoss="28.79" rerouteNo="0" devices="tripinfo_flow03.9" vType="CarA" speedFactor="1.08" vaporized=""/>
    <tripinfo id="flow12.4" depart="106.00" departLane="e_t_0" departPos="5.10" departSpeed="0.00" departDelay="0.14" arrival="170.00" arrivalLane="t_n_0" arrivalPos="136.25" arrivalSpeed="10.97" duration="64.00" routeLength="293.40" waitingTime="28.00" waitingCount="1" stopTime="0.00" timeLoss="38.85" rerouteNo="0" devices="tripinfo_flow12.4" vType="CarA" speedFactor="0.87" vaporized=""/>
    <tripinfo id="flow12.5" depart="112.00" departLane="e_t_0" departPos="5.10" departSpeed="0.00" departDelay="2.00" arrival="172.00" arrivalLane="t_n_0" arrivalPos="136.25" arrivalSpeed="14.05" duration="60.00" routeLength="293.40" waitingTime="24.00" waitingCount="1" stopTime="0.00" timeLoss="38.34" rerouteNo="0" devices="tripinfo_flow12.5" vType="CarA" speedFactor="1.04" vaporized=""/>
    <tripinfo id="flow03.10" depart="128.00" departLane="n_t_0" departPos="5.10" departSpeed="0.00" departDelay="1.29" arrival="172.00" arrivalLane="t_e_0" arrivalPos="136.25" arrivalSpeed="10.79" duration="44.00" routeLength="279.21" waitingTime="7.00" waitingCount="1" stopTime="0.00" timeLoss="18.69" rerouteNo="0" devices="tripinfo_flow03.10" vType="CarA" speedFactor="0.84" vaporized=""/>
    <tripinfo id="flow09.3" depart="110.00" departLane="w_t_0" departPos="5.10" departSpeed="0.00" departDelay="0.51" arrival="178.00" arrivalLane="t_n_0" arrivalPos="136.25" arrivalSpeed="11.85" duration="68.00" routeLength="279.21" waitingTime="35.00" waitingCount="1" stopTime="0.00" timeLoss="44.22" rerouteNo="0" devices="tripinfo_flow09.3" vType="CarA" speedFactor="0.88" vaporized=""/>
    <tripinfo id="flow07.12" depart="118.00" departLane="w_t_0" departPos="5.10" departSpeed="0.00" departDelay="0.10" arrival="178.00" arrivalLane="t_e_0" arrivalPos="136.25" arrivalSpeed="12.83" duration="60.00" routeLength="294.90" waitingTime="29.00" waitingCount="1" stopTime="0.00" timeLoss="38.64" rerouteNo="0" devices="tripinfo_flow07.12" vType="CarA" speedFactor="1.02" vaporized=""/>