<?xml version="1.0" encoding="UTF-8"?>

<!-- generated on 2024-06-10 22:58:53 by Eclipse SUMO libsumo Version 1.20.0
<configuration xmlns:xsi="http://www.w3.org/2001/XMLSchema-instance" xsi:noNamespaceSchemaLocation="http://sumo.dlr.de/xsd/libsumoConfiguration.xsd">

    <input>
        <net-file value="sumo_rl/nets/2way-single-intersection/single-intersection-2.net.xml"/>
        <route-files value="sumo_rl/nets/2way-single-intersection/single-intersection-vhvh.rou.xml"/>
    </input>

    <output>
        <tripinfo-output value="outputs/l0.0001-normal-half-trained-10e5\tripinfos_20240610225853.xml"/>
    </output>

    <processing>
        <time-to-teleport value="-1"/>
        <waiting-time-memory value="1000"/>
        <max-depart-delay value="-1"/>
    </processing>

    <random_number>
        <random value="true"/>
    </random_number>

</configuration>
-->

<tripinfos xmlns:xsi="http://www.w3.org/2001/XMLSchema-instance" xsi:noNamespaceSchemaLocation="http://sumo.dlr.de/xsd/tripinfo_file.xsd">
    <tripinfo id="flow09.0" depart="7.00" departLane="w_t_0" departPos="5.10" departSpeed="0.00" departDelay="3.98" arrival="32.00" arrivalLane="t_n_0" arrivalPos="136.25" arrivalSpeed="14.85" duration="25.00" routeLength="279.21" waitingTime="0.00" waitingCount="0" stopTime="0.00" timeLoss="6.34" rerouteNo="0" devices="tripinfo_flow09.0" vType="CarA" speedFactor="1.13" vaporized=""/>
    <tripinfo id="flow02.0" depart="7.00" departLane="n_t_0" departPos="5.10" departSpeed="0.00" departDelay="0.82" arrival="33.00" arrivalLane="t_w_0" arrivalPos="136.25" arrivalSpeed="13.86" duration="26.00" routeLength="293.40" waitingTime="0.00" waitingCount="0" stopTime="0.00" timeLoss="5.15" rerouteNo="0" devices="tripinfo_flow02.0" vType="CarA" speedFactor="1.05" vaporized=""/>
    <tripinfo id="flow06.0" depart="10.00" departLane="s_t_0" departPos="5.10" departSpeed="0.00" departDelay="0.34" arrival="35.00" arrivalLane="t_e_0" arrivalPos="136.25" arrivalSpeed="14.62" duration="25.00" routeLength="293.40" waitingTime="0.00" waitingCount="0" stopTime="0.00" timeLoss="4.82" rerouteNo="0" devices="tripinfo_flow06.0" vType="CarA" speedFactor="1.11" vaporized=""/>
    <tripinfo id="flow11.0" depart="9.00" departLane="e_t_0" departPos="5.10" departSpeed="0.00" departDelay="0.09" arrival="37.00" arrivalLane="t_s_0" arrivalPos="136.25" arrivalSpeed="12.67" duration="28.00" routeLength="279.21" waitingTime="0.00" waitingCount="0" stopTime="0.00" timeLoss="5.72" rerouteNo="0" devices="tripinfo_flow11.0" vType="CarA" speedFactor="0.94" vaporized=""/>
    <tripinfo id="flow06.1" depart="16.00" departLane="s_t_0" departPos="5.10" departSpeed="0.00" departDelay="0.51" arrival="44.00" arrivalLane="t_e_0" arrivalPos="136.25" arrivalSpeed="12.38" duration="28.00" routeLength="293.40" waitingTime="0.00" waitingCount="0" stopTime="0.00" timeLoss="4.17" rerouteNo="0" devices="tripinfo_flow06.1" vType="CarA" speedFactor="0.92" vaporized=""/>
    <tripinfo id="flow04.0" depart="1.00" departLane="s_t_0" departPos="5.10" departSpeed="0.00" departDelay="0.90" arrival="45.00" arrivalLane="t_n_0" arrivalPos="136.25" arrivalSpeed="12.04" duration="44.00" routeLength="294.90" waitingTime="13.00" waitingCount="1" stopTime="0.00" timeLoss="21.17" rerouteNo="0" devices="tripinfo_flow04.0" vType="CarA" speedFactor="0.93" vaporized=""/>
    <tripinfo id="flow06.2" depart="20.00" departLane="s_t_0" departPos="5.10" departSpeed="0.00" departDelay="0.61" arrival="47.00" arrivalLane="t_e_0" arrivalPos="136.25" arrivalSpeed="13.25" duration="27.00" routeLength="293.40" waitingTime="0.00" waitingCount="0" stopTime="0.00" timeLoss="4.40" rerouteNo="0" devices="tripinfo_flow06.2" vType="CarA" speedFactor="0.99" vaporized=""/>
    <tripinfo id="flow09.1" depart="18.00" departLane="w_t_0" departPos="5.10" departSpeed="0.00" departDelay="1.40" arrival="54.00" arrivalLane="t_n_0" arrivalPos="136.25" arrivalSpeed="11.72" duration="36.00" routeLength="279.21" waitingTime="4.00" waitingCount="1" stopTime="0.00" timeLoss="12.53" rerouteNo="0" devices="tripinfo_flow09.1" vType="CarA" speedFactor="0.88" vaporized=""/>
    <tripinfo id="flow02.1" depart="35.00" departLane="n_t_0" departPos="5.10" departSpeed="0.00" departDelay="0.11" arrival="60.00" arrivalLane="t_w_0" arrivalPos="136.25" arrivalSpeed="14.14" duration="25.00" routeLength="293.40" waitingTime="0.00" waitingCount="0" stopTime="0.00" timeLoss="3.94" rerouteNo="0" devices="tripinfo_flow02.1" vType="CarA" speedFactor="1.04" vaporized=""/>
    <tripinfo id="flow11.1" depart="35.00" departLane="e_t_0" departPos="5.10" departSpeed="0.00" departDelay="0.22" arrival="64.00" arrivalLane="t_s_0" arrivalPos="136.25" arrivalSpeed="12.26" duration="29.00" routeLength="279.21" waitingTime="0.00" waitingCount="0" stopTime="0.00" timeLoss="5.37" rerouteNo="0" devices="tripinfo_flow11.1" vType="CarA" speedFactor="0.92" vaporized=""/>
    <tripinfo id="flow09.2" depart="36.00" departLane="w_t_0" departPos="5.10" departSpeed="0.00" departDelay="0.83" arrival="69.00" arrivalLane="t_n_0" arrivalPos="136.25" arrivalSpeed="9.70" duration="33.00" routeLength="279.21" waitingTime="0.00" waitingCount="0" stopTime="0.00" timeLoss="6.17" rerouteNo="0" devices="tripinfo_flow09.2" vType="CarA" speedFactor="0.78" vaporized=""/>
    <tripinfo id="flow09.3" depart="43.00" departLane="w_t_0" departPos="5.10" departSpeed="0.00" departDelay="2.95" arrival="71.00" arrivalLane="t_n_0" arrivalPos="136.25" arrivalSpeed="13.85" duration="28.00" routeLength="279.21" waitingTime="0.00" waitingCount="0" stopTime="0.00" timeLoss="7.27" rerouteNo="0" devices="tripinfo_flow09.3" vType="CarA" speedFactor="1.04" vaporized=""/>
    <tripinfo id="flow05.0" depart="27.00" departLane="s_t_0" departPos="5.10" departSpeed="0.00" departDelay="0.15" arrival="77.00" arrivalLane="t_w_0" arrivalPos="136.25" arrivalSpeed="15.45" duration="50.00" routeLength="279.21" waitingTime="21.00" waitingCount="1" stopTime="0.00" timeLoss="30.78" rerouteNo="0" devices="tripinfo_flow05.0" vType="CarA" speedFactor="1.13" vaporized=""/>
    <tripinfo id="flow01.0" depart="10.00" departLane="n_t_0" departPos="5.10" departSpeed="0.00" departDelay="0.57" arrival="78.00" arrivalLane="t_s_0" arrivalPos="136.25" arrivalSpeed="14.22" duration="68.00" routeLength="294.90" waitingTime="37.00" waitingCount="1" stopTime="0.00" timeLoss="47.29" rerouteNo="0" devices="tripinfo_flow01.0" vType="CarA" speedFactor="1.03" vaporized=""/>
    <tripinfo id="flow03.0" depart="26.00" departLane="n_t_0" departPos="5.10" departSpeed="0.00" departDelay="1.66" arrival="78.00" arrivalLane="t_e_0" arrivalPos="136.25" arrivalSpeed="12.15" duration="52.00" routeLength="279.21" waitingTime="21.00" waitingCount="1" stopTime="0.00" timeLoss="29.64" rerouteNo="0" devices="tripinfo_flow03.0" vType="CarA" speedFactor="0.94" vaporized=""/>
    <tripinfo id="flow01.1" depart="13.00" departLane="n_t_0" departPos="5.10" departSpeed="0.00" departDelay="3.05" arrival="80.00" arrivalLane="t_s_0" arrivalPos="136.25" arrivalSpeed="15.28" duration="67.00" routeLength="294.90" waitingTime="36.00" waitingCount="1" stopTime="0.00" timeLoss="47.72" rerouteNo="0" devices="tripinfo_flow01.1" vType="CarA" speedFactor="1.13" vaporized=""/>
    <tripinfo id="flow09.4" depart="53.00" departLane="w_t_0" departPos="5.10" departSpeed="0.00" departDelay="0.11" arrival="80.00" arrivalLane="t_n_0" arrivalPos="136.25" arrivalSpeed="13.54" duration="27.00" routeLength="279.21" waitingTime="0.00" waitingCount="0" stopTime="0.00" timeLoss="5.59" rerouteNo="0" devices="tripinfo_flow09.4" vType="CarA" speedFactor="0.99" vaporized=""/>
    <tripinfo id="flow05.1" depart="46.00" departLane="s_t_0" departPos="5.10" departSpeed="0.00" departDelay="0.94" arrival="82.00" arrivalLane="t_w_0" arrivalPos="136.25" arrivalSpeed="11.58" duration="36.00" routeLength="279.21" waitingTime="1.00" waitingCount="1" stopTime="0.00" timeLoss="10.88" rerouteNo="0" devices="tripinfo_flow05.1" vType="CarA" speedFactor="0.83" vaporized=""/>
    <tripinfo id="flow11.2" depart="60.00" departLane="e_t_0" departPos="5.10" departSpeed="0.00" departDelay="0.24" arrival="85.00" arrivalLane="t_s_0" arrivalPos="136.25" arrivalSpeed="15.25" duration="25.00" routeLength="279.21" waitingTime="0.00" waitingCount="0" stopTime="0.00" timeLoss="6.65" rerouteNo="0" devices="tripinfo_flow11.2" vType="CarA" speedFactor="1.13" vaporized=""/>
    <tripinfo id="flow06.3" depart="60.00" departLane="s_t_0" departPos="5.10" departSpeed="0.00" departDelay="0.23" arrival="87.00" arrivalLane="t_e_0" arrivalPos="136.25" arrivalSpeed="13.08" duration="27.00" routeLength="293.40" waitingTime="0.00" waitingCount="0" stopTime="0.00" timeLoss="4.71" rerouteNo="0" devices="tripinfo_flow06.3" vType="CarA" speedFactor="0.98" vaporized=""/>
    <tripinfo id="flow04.1" depart="38.00" departLane="s_t_0" departPos="5.10" departSpeed="0.00" departDelay="0.24" arrival="88.00" arrivalLane="t_n_0" arrivalPos="136.25" arrivalSpeed="15.25" duration="50.00" routeLength="294.90" waitingTime="21.00" waitingCount="1" stopTime="0.00" timeLoss="30.48" rerouteNo="0" devices="tripinfo_flow04.1" vType="CarA" speedFactor="1.12" vaporized=""/>
    <tripinfo id="flow05.2" depart="63.00" departLane="s_t_0" departPos="5.10" departSpeed="0.00" departDelay="0.51" arrival="88.00" arrivalLane="t_w_0" arrivalPos="136.25" arrivalSpeed="14.07" duration="25.00" routeLength="279.21" waitingTime="0.00" waitingCount="0" stopTime="0.00" timeLoss="5.55" rerouteNo="0" devices="tripinfo_flow05.2" vType="CarA" speedFactor="1.09" vaporized=""/>
    <tripinfo id="flow04.2" depart="42.00" departLane="s_t_0" departPos="5.10" departSpeed="0.00" departDelay="0.91" arrival="93.00" arrivalLane="t_n_0" arrivalPos="136.25" arrivalSpeed="10.77" duration="51.00" routeLength="294.90" waitingTime="17.00" waitingCount="1" stopTime="0.00" timeLoss="24.92" rerouteNo="0" devices="tripinfo_flow04.2" vType="CarA" speedFactor="0.82" vaporized=""/>
    <tripinfo id="flow08.0" depart="13.00" departLane="w_t_0" departPos="5.10" departSpeed="0.00" departDelay="5.95" arrival="100.00" arrivalLane="t_s_0" arrivalPos="136.25" arrivalSpeed="11.86" duration="87.00" routeLength="293.40" waitingTime="54.00" waitingCount="1" stopTime="0.00" timeLoss="62.39" rerouteNo="0" devices="tripinfo_flow08.0" vType="CarA" speedFactor="0.88" vaporized=""/>
    <tripinfo id="flow07.0" depart="4.00" departLane="w_t_0" departPos="5.10" departSpeed="0.00" departDelay="0.68" arrival="101.00" arrivalLane="t_e_0" arrivalPos="136.25" arrivalSpeed="11.32" duration="97.00" routeLength="294.90" waitingTime="64.00" waitingCount="1" stopTime="0.00" timeLoss="71.77" rerouteNo="0" devices="tripinfo_flow07.0" vType="CarA" speedFactor="0.86" vaporized=""/>
    <tripinfo id="flow05.3" depart="76.00" departLane="s_t_0" departPos="5.10" departSpeed="0.00" departDelay="0.09" arrival="101.00" arrivalLane="t_w_0" arrivalPos="136.25" arrivalSpeed="15.48" duration="25.00" routeLength="279.21" waitingTime="0.00" waitingCount="0" stopTime="0.00" timeLoss="5.95" rerouteNo="0" devices="tripinfo_flow05.3" vType="CarA" speedFactor="1.15" vaporized=""/>
    <tripinfo id="flow07.1" depart="10.00" departLane="w_t_0" departPos="5.10" departSpeed="0.00" departDelay="3.90" arrival="103.00" arrivalLane="t_e_0" arrivalPos="136.25" arrivalSpeed="13.47" duration="93.00" routeLength="294.90" waitingTime="60.00" waitingCount="1" stopTime="0.00" timeLoss="70.73" rerouteNo="0" devices="tripinfo_flow07.1" vType="CarA" speedFactor="0.99" vaporized=""/>
    <tripinfo id="flow08.1" depart="26.00" departLane="w_t_0" departPos="5.10" departSpeed="0.00" departDelay="0.66" arrival="103.00" arrivalLane="t_s_0" arrivalPos="136.25" arrivalSpeed="11.37" duration="77.00" routeLength="293.40" waitingTime="43.00" waitingCount="1" stopTime="0.00" timeLoss="51.12" rerouteNo="0" devices="tripinfo_flow08.1" vType="CarA" speedFactor="0.87" vaporized=""/>
    <tripinfo id="flow07.2" depart="15.00" departLane="w_t_0" departPos="5.10" departSpeed="0.00" departDelay="3.47" arrival="104.00" arrivalLane="t_e_0" arrivalPos="136.25" arrivalSpeed="12.34" duration="89.00" routeLength="294.90" waitingTime="55.00" waitingCount="1" stopTime="0.00" timeLoss="66.77" rerouteNo="0" devices="tripinfo_flow07.2" vType="CarA" speedFactor="0.96" vaporized=""/>
    <tripinfo id="flow08.2" depart="46.00" departLane="w_t_0" departPos="5.10" departSpeed="0.00" departDelay="4.29" arrival="104.00" arrivalLane="t_s_0" arrivalPos="136.25" arrivalSpeed="13.21" duration="58.00" routeLength="293.40" waitingTime="24.00" waitingCount="1" stopTime="0.00" timeLoss="38.48" rerouteNo="0" devices="tripinfo_flow08.2" vType="CarA" speedFactor="1.12" vaporized=""/>
    <tripinfo id="flow02.2" depart="80.00" departLane="n_t_0" departPos="5.10" departSpeed="0.00" departDelay="0.73" arrival="109.00" arrivalLane="t_w_0" arrivalPos="136.25" arrivalSpeed="14.62" duration="29.00" routeLength="293.40" waitingTime="0.00" waitingCount="0" stopTime="0.00" timeLoss="8.05" rerouteNo="0" devices="tripinfo_flow02.2" vType="CarA" speedFactor="1.08" vaporized=""/>
    <tripinfo id="flow02.3" depart="86.00" departLane="n_t_0" departPos="5.10" departSpeed="0.00" departDelay="0.01" arrival="110.00" arrivalLane="t_w_0" arrivalPos="136.25" arrivalSpeed="14.83" duration="24.00" routeLength="293.40" waitingTime="0.00" waitingCount="0" stopTime="0.00" timeLoss="4.55" rerouteNo="0" devices="tripinfo_flow02.3" vType="CarA" speedFactor="1.12" vaporized=""/>
    <tripinfo id="flow01.2" depart="23.00" departLane="n_t_0" departPos="5.10" departSpeed="0.00" departDelay="0.77" arrival="112.00" arrivalLane="t_s_0" arrivalPos="136.25" arrivalSpeed="11.59" duration="89.00" routeLength="294.90" waitingTime="50.00" waitingCount="2" stopTime="0.00" timeLoss="65.28" rerouteNo="0" devices="tripinfo_flow01.2" vType="CarA" speedFactor="0.92" vaporized=""/>
    <tripinfo id="flow01.3" depart="38.00" departLane="n_t_0" departPos="5.10" departSpeed="0.00" departDelay="0.86" arrival="113.00" arrivalLane="t_s_0" arrivalPos="136.25" arrivalSpeed="14.84" duration="75.00" routeLength="294.90" waitingTime="38.00" waitingCount="2" stopTime="0.00" timeLoss="56.61" rerouteNo="0" devices="tripinfo_flow01.3" vType="CarA" speedFactor="1.16" vaporized=""/>
    <tripinfo id="flow09.5" depart="90.00" departLane="w_t_0" departPos="5.10" departSpeed="0.00" departDelay="0.38" arrival="115.00" arrivalLane="t_n_0" arrivalPos="136.25" arrivalSpeed="16.07" duration="25.00" routeLength="279.21" waitingTime="0.00" waitingCount="0" stopTime="0.00" timeLoss="6.12" rerouteNo="0" devices="tripinfo_flow09.5" vType="CarA" speedFactor="1.17" vaporized=""/>
    <tripinfo id="flow01.4" depart="48.00" departLane="n_t_0" departPos="5.10" departSpeed="0.00" departDelay="0.76" arrival="116.00" arrivalLane="t_s_0" arrivalPos="136.25" arrivalSpeed="11.23" duration="68.00" routeLength="294.90" waitingTime="28.00" waitingCount="2" stopTime="0.00" timeLoss="43.49" rerouteNo="0" devices="tripinfo_flow01.4" vType="CarA" speedFactor="0.88" vaporized=""/>
    <tripinfo id="flow01.5" depart="58.00" departLane="n_t_0" departPos="5.10" departSpeed="0.00" departDelay="0.44" arrival="118.00" arrivalLane="t_s_0" arrivalPos="136.25" arrivalSpeed="12.27" duration="60.00" routeLength="294.90" waitingTime="21.00" waitingCount="1" stopTime="0.00" timeLoss="36.19" rerouteNo="0" devices="tripinfo_flow01.5" vType="CarA" speedFactor="0.92" vaporized=""/>
    <tripinfo id="flow05.4" depart="95.00" departLane="s_t_0" departPos="5.10" departSpeed="0.00" departDelay="3.94" arrival="121.00" arrivalLane="t_w_0" arrivalPos="136.25" arrivalSpeed="14.33" duration="26.00" routeLength="279.21" waitingTime="0.00" waitingCount="0" stopTime="0.00" timeLoss="6.10" rerouteNo="0" devices="tripinfo_flow05.4" vType="CarA" speedFactor="1.07" vaporized=""/>
    <tripinfo id="flow07.3" depart="24.00" departLane="w_t_0" departPos="5.10" departSpeed="0.00" departDelay="0.82" arrival="122.00" arrivalLane="t_e_0" arrivalPos="136.25" arrivalSpeed="15.93" duration="98.00" routeLength="294.90" waitingTime="64.00" waitingCount="2" stopTime="0.00" timeLoss="80.53" rerouteNo="0" devices="tripinfo_flow07.3" vType="CarA" speedFactor="1.22" vaporized=""/>
    <tripinfo id="flow08.3" depart="50.00" departLane="w_t_0" departPos="5.10" departSpeed="0.00" departDelay="2.41" arrival="123.00" arrivalLane="t_s_0" arrivalPos="136.25" arrivalSpeed="15.86" duration="73.00" routeLength="293.40" waitingTime="36.00" waitingCount="2" stopTime="0.00" timeLoss="54.02" rerouteNo="0" devices="tripinfo_flow08.3" vType="CarA" speedFactor="1.18" vaporized=""/>
    <tripinfo id="flow07.4" depart="27.00" departLane="w_t_0" departPos="5.10" departSpeed="0.00" departDelay="0.60" arrival="125.00" arrivalLane="t_e_0" arrivalPos="136.25" arrivalSpeed="13.31" duration="98.00" routeLength="294.90" waitingTime="60.00" waitingCount="2" stopTime="0.00" timeLoss="77.24" rerouteNo="0" devices="tripinfo_flow07.4" vType="CarA" speedFactor="1.03" vaporized=""/>
    <tripinfo id="flow08.4" depart="56.00" departLane="w_t_0" departPos="5.10" departSpeed="0.00" departDelay="2.24" arrival="125.00" arrivalLane="t_s_0" arrivalPos="136.25" arrivalSpeed="13.79" duration="69.00" routeLength="293.40" waitingTime="31.00" waitingCount="2" stopTime="0.00" timeLoss="48.16" rerouteNo="0" devices="tripinfo_flow08.4" vType="CarA" speedFactor="1.04" vaporized=""/>
    <tripinfo id="flow05.5" depart="98.00" departLane="s_t_0" departPos="5.10" departSpeed="0.00" departDelay="5.76" arrival="125.00" arrivalLane="t_w_0" arrivalPos="136.25" arrivalSpeed="12.57" duration="27.00" routeLength="279.21" waitingTime="0.00" waitingCount="0" stopTime="0.00" timeLoss="5.41" rerouteNo="0" devices="tripinfo_flow05.5" vType="CarA" speedFactor="0.98" vaporized=""/>
    <tripinfo id="flow11.3" depart="75.00" departLane="e_t_0" departPos="5.10" departSpeed="0.00" departDelay="0.58" arrival="133.00" arrivalLane="t_s_0" arrivalPos="136.25" arrivalSpeed="12.95" duration="58.00" routeLength="279.21" waitingTime="28.00" waitingCount="1" stopTime="0.00" timeLoss="36.00" rerouteNo="0" devices="tripinfo_flow11.3" vType="CarA" speedFactor="0.97" vaporized=""/>
    <tripinfo id="flow06.4" depart="85.00" departLane="s_t_0" departPos="5.10" departSpeed="0.00" departDelay="2.18" arrival="134.00" arrivalLane="t_e_0" arrivalPos="136.25" arrivalSpeed="13.36" duration="49.00" routeLength="293.40" waitingTime="19.00" waitingCount="1" stopTime="0.00" timeLoss="26.66" rerouteNo="0" devices="tripinfo_flow06.4" vType="CarA" speedFactor="1.00" vaporized=""/>
    <tripinfo id="flow02.4" depart="101.00" departLane="n_t_0" departPos="5.10" departSpeed="0.00" departDelay="0.88" arrival="134.00" arrivalLane="t_w_0" arrivalPos="136.25" arrivalSpeed="12.91" duration="33.00" routeLength="293.40" waitingTime="2.00" waitingCount="1" stopTime="0.00" timeLoss="11.38" rerouteNo="0" devices="tripinfo_flow02.4" vType="CarA" speedFactor="1.02" vaporized=""/>
    <tripinfo id="flow06.5" depart="86.00" departLane="s_t_0" departPos="5.10" departSpeed="0.00" departDelay="0.19" arrival="135.00" arrivalLane="t_e_0" arrivalPos="136.25" arrivalSpeed="14.92" duration="49.00" routeLength="293.40" waitingTime="18.00" waitingCount="1" stopTime="0.00" timeLoss="28.93" rerouteNo="0" devices="tripinfo_flow06.5" vType="CarA" speedFactor="1.08" vaporized=""/>
    <tripinfo id="flow09.6" depart="112.00" departLane="w_t_0" departPos="5.10" departSpeed="0.00" departDelay="2.91" arrival="139.00" arrivalLane="t_n_0" arrivalPos="136.25" arrivalSpeed="12.98" duration="27.00" routeLength="279.21" waitingTime="0.00" waitingCount="0" stopTime="0.00" timeLoss="5.13" rerouteNo="0" devices="tripinfo_flow09.6" vType="CarA" speedFactor="0.97" vaporized=""/>
    <tripinfo id="flow07.5" depart="31.00" departLane="w_t_0" departPos="5.10" departSpeed="0.00" departDelay="0.02" arrival="143.00" arrivalLane="t_e_0" arrivalPos="136.25" arrivalSpeed="14.23" duration="112.00" routeLength="294.90" waitingTime="69.00" waitingCount="3" stopTime="0.00" timeLoss="92.21" rerouteNo="0" devices="tripinfo_flow07.5" vType="CarA" speedFactor="1.11" vaporized=""/>
    <tripinfo id="flow08.5" depart="57.00" departLane="w_t_0" departPos="5.10" departSpeed="0.00" departDelay="0.34" arrival="145.00" arrivalLane="t_s_0" arrivalPos="136.25" arrivalSpeed="12.19" duration="88.00" routeLength="293.40" waitingTime="40.00" waitingCount="3" stopTime="0.00" timeLoss="64.03" rerouteNo="0" devices="tripinfo_flow08.5" vType="CarA" speedFactor="0.90" vaporized=""/>
    <tripinfo id="flow07.6" depart="41.00" departLane="w_t_0" departPos="5.10" departSpeed="0.00" departDelay="0.74" arrival="146.00" arrivalLane="t_e_0" arrivalPos="136.25" arrivalSpeed="11.67" duration="105.00" routeLength="294.90" waitingTime="60.00" waitingCount="3" stopTime="0.00" timeLoss="81.75" rerouteNo="0" devices="tripinfo_flow07.6" vType="CarA" speedFactor="0.91" vaporized=""/>
    <tripinfo id="flow08.6" depart="63.00" departLane="w_t_0" departPos="5.10" departSpeed="0.00" departDelay="5.21" arrival="147.00" arrivalLane="t_s_0" arrivalPos="136.25" arrivalSpeed="12.40" duration="84.00" routeLength="293.40" waitingTime="38.00" waitingCount="3" stopTime="0.00" timeLoss="61.19" rerouteNo="0" devices="tripinfo_flow08.6" vType="CarA" speedFactor="0.96" vaporized=""/>
    <tripinfo id="flow11.4" depart="114.00" departLane="e_t_0" departPos="5.10" departSpeed="0.00" departDelay="1.32" arrival="152.00" arrivalLane="t_s_0" arrivalPos="136.25" arrivalSpeed="15.11" duration="38.00" routeLength="279.21" waitingTime="10.00" waitingCount="1" stopTime="0.00" timeLoss="18.89" rerouteNo="0" devices="tripinfo_flow11.4" vType="CarA" speedFactor="1.12" vaporized=""/>
    <tripinfo id="flow04.3" depart="67.00" departLane="s_t_0" departPos="5.10" departSpeed="0.00" departDelay="0.42" arrival="153.00" arrivalLane="t_n_0" arrivalPos="136.25" arrivalSpeed="13.91" duration="86.00" routeLength="294.90" waitingTime="56.00" waitingCount="1" stopTime="0.00" timeLoss="64.66" rerouteNo="0" devices="tripinfo_flow04.3" vType="CarA" speedFactor="1.00" vaporized=""/>
    <tripinfo id="flow06.6" depart="94.00" departLane="s_t_0" departPos="5.10" departSpeed="0.00" departDelay="3.50" arrival="153.00" arrivalLane="t_e_0" arrivalPos="136.25" arrivalSpeed="14.69" duration="59.00" routeLength="293.40" waitingTime="25.00" waitingCount="2" stopTime="0.00" timeLoss="39.40" rerouteNo="0" devices="tripinfo_flow06.6" vType="CarA" speedFactor="1.14" vaporized=""/>
    <tripinfo id="flow06.7" depart="102.00" departLane="s_t_0" departPos="5.10" departSpeed="0.00" departDelay="0.32" arrival="155.00" arrivalLane="t_e_0" arrivalPos="136.25" arrivalSpeed="14.44" duration="53.00" routeLength="293.40" waitingTime="16.00" waitingCount="2" stopTime="0.00" timeLoss="32.50" rerouteNo="0" devices="tripinfo_flow06.7" vType="CarA" speedFactor="1.06" vaporized=""/>
    <tripinfo id="flow04.4" depart="70.00" departLane="s_t_0" departPos="5.10" departSpeed="0.00" departDelay="0.11" arrival="157.00" arrivalLane="t_n_0" arrivalPos="136.25" arrivalSpeed="11.61" duration="87.00" routeLength="294.90" waitingTime="53.00" waitingCount="1" stopTime="0.00" timeLoss="62.55" rerouteNo="0" devices="tripinfo_flow04.4" vType="CarA" speedFactor="0.87" vaporized=""/>
    <tripinfo id="flow06.8" depart="125.00" departLane="s_t_0" departPos="5.10" departSpeed="0.00" departDelay="0.64" arrival="157.00" arrivalLane="t_e_0" arrivalPos="136.25" arrivalSpeed="15.23" duration="32.00" routeLength="293.40" waitingTime="1.00" waitingCount="1" stopTime="0.00" timeLoss="13.05" rerouteNo="0" devices="tripinfo_flow06.8" vType="CarA" speedFactor="1.17" vaporized=""/>
    <tripinfo id="flow04.5" depart="80.00" departLane="s_t_0" departPos="5.10" departSpeed="0.00" departDelay="0.85" arrival="159.00" arrivalLane="t_n_0" arrivalPos="136.25" arrivalSpeed="13.08" duration="79.00" routeLength="294.90" waitingTime="45.00" waitingCount="1" stopTime="0.00" timeLoss="56.25" rerouteNo="0" devices="tripinfo_flow04.5" vType="CarA" speedFactor="0.95" vaporized=""/>
    <tripinfo id="flow11.5" depart="127.00" departLane="e_t_0" departPos="5.10" departSpeed="0.00" departDelay="0.04" arrival="163.00" arrivalLane="t_s_0" arrivalPos="136.25" arrivalSpeed="8.50" duration="36.00" routeLength="279.21" waitingTime="0.00" waitingCount="0" stopTime="0.00" timeLoss="5.42" rerouteNo="0" devices="tripinfo_flow11.5" vType="CarA" speedFactor="0.69" vaporized=""/>
    <tripinfo id="flow05.6" depart="137.00" departLane="s_t_0" departPos="5.10" departSpeed="0.00" departDelay="0.64" arrival="163.00" arrivalLane="t_w_0" arrivalPos="136.25" arrivalSpeed="13.95" duration="26.00" routeLength="279.21" waitingTime="0.00" waitingCount="0" stopTime="0.00" timeLoss="5.26" rerouteNo="0" devices="tripinfo_flow05.6" vType="CarA" speedFactor="1.03" vaporized=""/>
    <tripinfo id="flow07.7" depart="48.00" departLane="w_t_0" departPos="5.10" departSpeed="0.00" departDelay="2.58" arrival="164.00" arrivalLane="t_e_0" arrivalPos="136.25" arrivalSpeed="14.93" duration="116.00" routeLength="294.90" waitingTime="68.00" waitingCount="4" stopTime="0.00" timeLoss="97.14" rerouteNo="0" devices="tripinfo_flow07.7" vType="CarA" speedFactor="1.15" vaporized=""/>
    <tripinfo id="flow09.7" depart="138.00" departLane="w_t_0" departPos="5.10" departSpeed="0.00" departDelay="0.91" arrival="164.00" arrivalLane="t_n_0" arrivalPos="136.25" arrivalSpeed="14.02" duration="26.00" routeLength="279.21" waitingTime="0.00" waitingCount="0" stopTime="0.00" timeLoss="5.61" rerouteNo="0" devices="tripinfo_flow09.7" vType="CarA" speedFactor="1.04" vaporized=""/>
    <tripinfo id="flow08.7" depart="80.00" departLane="w_t_0" departPos="5.10" departSpeed="0.00" departDelay="0.20" arrival="165.00" arrivalLane="t_s_0" arrivalPos="136.25" arrivalSpeed="15.08" duration="85.00" routeLength="293.40" waitingTime="38.00" waitingCount="3" stopTime="0.00" timeLoss="65.43" rerouteNo="0" devices="tripinfo_flow08.7" vType="CarA" speedFactor="1.14" vaporized=""/>
    <tripinfo id="flow07.8" depart="58.00" departLane="w_t_0" departPos="5.10" departSpeed="0.00" departDelay="0.93" arrival="166.00" arrivalLane="t_e_0" arrivalPos="136.25" arrivalSpeed="14.65" duration="108.00" routeLength="294.90" waitingTime="58.00" waitingCount="4" stopTime="0.00" timeLoss="88.61" rerouteNo="0" devices="tripinfo_flow07.8" vType="CarA" speedFactor="1.11" vaporized=""/>
    <tripinfo id="flow08.8" depart="99.00" departLane="w_t_0" departPos="5.10" departSpeed="0.00" departDelay="0.31" arrival="169.00" arrivalLane="t_s_0" arrivalPos="136.25" arrivalSpeed="12.48" duration="70.00" routeLength="293.40" waitingTime="24.00" waitingCount="3" stopTime="0.00" timeLoss="45.71" rerouteNo="0" devices="tripinfo_flow08.8" vType="CarA" speedFactor="0.93" vaporized=""/>
    <tripinfo id="flow11.6" depart="132.00" departLane="e_t_0" departPos="5.10" departSpeed="0.00" departDelay="4.60" arrival="174.00" arrivalLane="t_s_0" arrivalPos="136.25" arrivalSpeed="14.90" duration="42.00" routeLength="279.21" waitingTime="11.00" waitingCount="1" stopTime="0.00" timeLoss="22.53" rerouteNo="0" devices="tripinfo_flow11.6" vType="CarA" speedFactor="1.09" vaporized=""/>
    <tripinfo id="flow10.0" depart="6.00" departLane="e_t_0" departPos="5.10" departSpeed="0.00" departDelay="0.39" arrival="175.00" arrivalLane="t_w_0" arrivalPos="136.25" arrivalSpeed="14.45" duration="169.00" routeLength="294.90" waitingTime="139.00" waitingCount="1" stopTime="0.00" timeLoss="149.32" rerouteNo="0" devices="tripinfo_flow10.0" vType="CarA" speedFactor="1.11" vaporized=""/>
    <tripinfo id="flow03.1" depart="129.00" departLane="n_t_0" departPos="5.10" departSpeed="0.00" departDelay="0.65" arrival="175.00" arrivalLane="t_e_0" arrivalPos="136.25" arrivalSpeed="12.55" duration="46.00" routeLength="279.21" waitingTime="16.00" waitingCount="1" stopTime="0.00" timeLoss="24.32" rerouteNo="0" devices="tripinfo_flow03.1" vType="CarA" speedFactor="0.98" vaporized=""/>
    <tripinfo id="flow12.0" depart="23.00" departLane="e_t_0" departPos="5.10" departSpeed="0.00" departDelay="0.41" arrival="176.00" arrivalLane="t_n_0" arrivalPos="136.25" arrivalSpeed="12.94" duration="153.00" routeLength="293.40" waitingTime="121.00" waitingCount="1" stopTime="0.00" timeLoss="129.78" rerouteNo="0" devices="tripinfo_flow12.0" vType="CarA" speedFactor="0.94" vaporized=""/>
    <tripinfo id="flow03.2" depart="131.00" departLane="n_t_0" departPos="5.10" departSpeed="0.00" departDelay="2.19" arrival="177.00" arrivalLane="t_e_0" arrivalPos="136.25" arrivalSpeed="12.81" duration="46.00" routeLength="279.21" waitingTime="13.00" waitingCount="1" stopTime="0.00" timeLoss="24.64" rerouteNo="0" devices="tripinfo_flow03.2" vType="CarA" speedFactor="0.99" vaporized=""/>
    <tripinfo id="flow12.1" depart="43.00" departLane="e_t_0" departPos="5.10" departSpeed="0.00" departDelay="0.06" arrival="178.00" arrivalLane="t_n_0" arrivalPos="136.25" arrivalSpeed="15.28" duration="135.00" routeLength="293.40" waitingTime="103.00" waitingCount="1" stopTime="0.00" timeLoss="114.84" rerouteNo="0" devices="tripinfo_flow12.1" vType="CarA" speedFactor="1.11" vaporized=""/>
    <tripinfo id="flow11.7" depart="135.00" departLane="e_t_0" departPos="5.10" departSpeed="0.00" departDelay="2.63" arrival="178.00" arrivalLane="t_s_0" arrivalPos="136.25" arrivalSpeed="12.40" duration="43.00" routeLength="279.21" waitingTime="10.00" waitingCount="1" stopTime="0.00" timeLoss="20.97" rerouteNo="0" devices="tripinfo_flow11.7" vType="CarA" speedFactor="0.95" vaporized=""/>
    <tripinfo id="flow10.1" depart="45.00" departLane="e_t_0" departPos="5.10" departSpeed="0.00" departDelay="1.75" arrival="179.00" arrivalLane="t_w_0" arrivalPos="136.25" arrivalSpeed="10.84" duration="134.00" routeLength="294.90" waitingTime="100.00" waitingCount="1" stopTime="0.00" timeLoss="109.01" rerouteNo="0" devices="tripinfo_flow10.1" vType="CarA" speedFactor="0.86" vaporized=""/>